Program Version,EnergyPlus, Linux, VERSION 7.1.0.012, YMD=2012.07.31 17:48
1,5,Environment Title[],Latitude[degrees],Longitude[degrees],Time Zone[],Elevation[m]
2,6,Day of Simulation[],Month[],Day of Month[],DST Indicator[1=yes 0=no],Hour[],StartMinute[],EndMinute[],DayType
3,3,Cumulative Day of Simulation[],Month[],Day of Month[],DST Indicator[1=yes 0=no],DayType  ! When Daily Meters Requested
4,2,Cumulative Days of Simulation[],Month[]  ! When Monthly Meters Requested
5,1,Cumulative Days of Simulation[] ! When Run Period Meters Requested
41,11,Electricity:Facility [J] !RunPeriod [Value,Min,Month,Day,Hour,Minute,Max,Month,Day,Hour,Minute]
1516,11,ElectricityPurchased:Facility [J] !RunPeriod [Value,Min,Month,Day,Hour,Minute,Max,Month,Day,Hour,Minute]
1547,11,ElectricitySurplusSold:Facility [J] !RunPeriod [Value,Min,Month,Day,Hour,Minute,Max,Month,Day,Hour,Minute]
1578,11,ElectricityNet:Facility [J] !RunPeriod [Value,Min,Month,Day,Hour,Minute,Max,Month,Day,Hour,Minute]
1973,11,Source:Facility [J] !RunPeriod [Value,Min,Month,Day,Hour,Minute,Max,Month,Day,Hour,Minute]
1994,11,CO2:Facility [kg] !RunPeriod [Value,Min,Month,Day,Hour,Minute,Max,Month,Day,Hour,Minute]
51,11,Electricity:Building [J] !RunPeriod [Value,Min,Month,Day,Hour,Minute,Max,Month,Day,Hour,Minute]
1931,11,Electricity:Plant [J] !RunPeriod [Value,Min,Month,Day,Hour,Minute,Max,Month,Day,Hour,Minute]
1837,11,Electricity:HVAC [J] !RunPeriod [Value,Min,Month,Day,Hour,Minute,Max,Month,Day,Hour,Minute]
71,11,InteriorLights:Electricity [J] !RunPeriod [Value,Min,Month,Day,Hour,Minute,Max,Month,Day,Hour,Minute]
396,11,InteriorEquipment:Electricity [J] !RunPeriod [Value,Min,Month,Day,Hour,Minute,Max,Month,Day,Hour,Minute]
1858,11,Fans:Electricity [J] !RunPeriod [Value,Min,Month,Day,Hour,Minute,Max,Month,Day,Hour,Minute]
1847,11,Cooling:Electricity [J] !RunPeriod [Value,Min,Month,Day,Hour,Minute,Max,Month,Day,Hour,Minute]
1962,11,Pumps:Electricity [J] !RunPeriod [Value,Min,Month,Day,Hour,Minute,Max,Month,Day,Hour,Minute]
1941,11,Heating:Electricity [J] !RunPeriod [Value,Min,Month,Day,Hour,Minute,Max,Month,Day,Hour,Minute]
581,11,Gas:Facility [J] !RunPeriod [Value,Min,Month,Day,Hour,Minute,Max,Month,Day,Hour,Minute]
611,11,InteriorEquipment:Gas [J] !RunPeriod [Value,Min,Month,Day,Hour,Minute,Max,Month,Day,Hour,Minute]
1910,11,Heating:Gas [J] !RunPeriod [Value,Min,Month,Day,Hour,Minute,Max,Month,Day,Hour,Minute]
1900,11,Gas:Plant [J] !RunPeriod [Value,Min,Month,Day,Hour,Minute,Max,Month,Day,Hour,Minute]
38,1,Electricity:Facility [J] !Hourly
1575,1,ElectricityNet:Facility [J] !Hourly
578,1,Gas:Facility [J] !Hourly
40,9,Electricity:Facility [J] !Monthly [Value,Min,Day,Hour,Minute,Max,Day,Hour,Minute]
580,9,Gas:Facility [J] !Monthly [Value,Min,Day,Hour,Minute,Max,Day,Hour,Minute]
1993,9,CO2:Facility [kg] !Monthly [Value,Min,Day,Hour,Minute,Max,Day,Hour,Minute]
2014,9,CO:Facility [kg] !Monthly [Value,Min,Day,Hour,Minute,Max,Day,Hour,Minute]
2035,9,CH4:Facility [kg] !Monthly [Value,Min,Day,Hour,Minute,Max,Day,Hour,Minute]
2056,9,NOx:Facility [kg] !Monthly [Value,Min,Day,Hour,Minute,Max,Day,Hour,Minute]
2077,9,N2O:Facility [kg] !Monthly [Value,Min,Day,Hour,Minute,Max,Day,Hour,Minute]
2098,9,SO2:Facility [kg] !Monthly [Value,Min,Day,Hour,Minute,Max,Day,Hour,Minute]
2119,9,PM:Facility [kg] !Monthly [Value,Min,Day,Hour,Minute,Max,Day,Hour,Minute]
2140,9,PM10:Facility [kg] !Monthly [Value,Min,Day,Hour,Minute,Max,Day,Hour,Minute]
2161,9,PM2.5:Facility [kg] !Monthly [Value,Min,Day,Hour,Minute,Max,Day,Hour,Minute]
2182,9,NH3:Facility [kg] !Monthly [Value,Min,Day,Hour,Minute,Max,Day,Hour,Minute]
2203,9,NMVOC:Facility [kg] !Monthly [Value,Min,Day,Hour,Minute,Max,Day,Hour,Minute]
2224,9,Hg:Facility [kg] !Monthly [Value,Min,Day,Hour,Minute,Max,Day,Hour,Minute]
2245,9,Pb:Facility [kg] !Monthly [Value,Min,Day,Hour,Minute,Max,Day,Hour,Minute]
2266,9,WaterEnvironmentalFactors:Facility [L] !Monthly [Value,Min,Day,Hour,Minute,Max,Day,Hour,Minute]
2287,9,Nuclear High:Facility [kg] !Monthly [Value,Min,Day,Hour,Minute,Max,Day,Hour,Minute]
2308,9,Nuclear Low:Facility [m3] !Monthly [Value,Min,Day,Hour,Minute,Max,Day,Hour,Minute]
2912,9,Carbon Equivalent:Facility [kg] !Monthly [Value,Min,Day,Hour,Minute,Max,Day,Hour,Minute]
End of Data Dictionary
1,San Francisco Intl Ap CA USA TMY3 WMO#=724940,  37.62,-122.40,  -8.00,   2.00
2,1, 1, 1, 0, 1, 0.00,60.00,Holiday        
38,1702447.2
578,189863.64
1575,1702447.2
2,1, 1, 1, 0, 2, 0.00,60.00,Holiday        
38,1702447.2
578,189863.64
1575,1702447.2
2,1, 1, 1, 0, 3, 0.00,60.00,Holiday        
38,1702447.2
578,189863.64
1575,1702447.2
2,1, 1, 1, 0, 4, 0.00,60.00,Holiday        
38,1702447.2
578,189863.64
1575,1702447.2
2,1, 1, 1, 0, 5, 0.00,60.00,Holiday        
38,1702447.2
578,189863.64
1575,1702447.2
2,1, 1, 1, 0, 6, 0.00,60.00,Holiday        
38,1702447.2
578,189863.64
1575,1702447.2
2,1, 1, 1, 0, 7, 0.00,60.00,Holiday        
38,21519336.2796454
578,257981089.031755
1575,21519336.2796454
2,1, 1, 1, 0, 8, 0.00,60.00,Holiday        
38,37517011.707064
578,127857258.040198
1575,37517011.707064
2,1, 1, 1, 0, 9, 0.00,60.00,Holiday        
38,37180404.6281245
578,67270671.6770866
1575,37180404.6281245
2,1, 1, 1, 0,10, 0.00,60.00,Holiday        
38,37032517.0213773
578,35998013.4686877
1575,37032517.0213773
2,1, 1, 1, 0,11, 0.00,60.00,Holiday        
38,36988520.9176042
578,26575094.1164579
1575,36988520.9176042
2,1, 1, 1, 0,12, 0.00,60.00,Holiday        
38,36968552.5130641
578,22401880.2986235
1575,36968552.5130641
2,1, 1, 1, 0,13, 0.00,60.00,Holiday        
38,52094768.2457515
578,16715266.5844764
1575,52094768.2457515
2,1, 1, 1, 0,14, 0.00,60.00,Holiday        
38,52040681.1876143
578,1272665.81489459
1575,52040681.1876143
2,1, 1, 1, 0,15, 0.00,60.00,Holiday        
38,52038921.2087432
578,759454.56
1575,52038921.2087432
2,1, 1, 1, 0,16, 0.00,60.00,Holiday        
38,52038921.2087432
578,759454.56
1575,52038921.2087432
2,1, 1, 1, 0,17, 0.00,60.00,Holiday        
38,52039121.6854857
578,818008.121365536
1575,52039121.6854857
2,1, 1, 1, 0,18, 0.00,60.00,Holiday        
38,52045459.0296177
578,2677903.81667033
1575,52045459.0296177
2,1, 1, 1, 0,19, 0.00,60.00,Holiday        
38,52060814.091778
578,7290087.67379386
1575,52060814.091778
2,1, 1, 1, 0,20, 0.00,60.00,Holiday        
38,52072134.7347022
578,10921631.7140771
1575,52072134.7347022
2,1, 1, 1, 0,21, 0.00,60.00,Holiday        
38,52083712.5049395
578,14855280.9617731
1575,52083712.5049395
2,1, 1, 1, 0,22, 0.00,60.00,Holiday        
38,52092134.8686809
578,17963358.1049734
1575,52092134.8686809
2,1, 1, 1, 0,23, 0.00,60.00,Holiday        
38,20524019.2380456
578,48415854.5946625
1575,20524019.2380456
2,1, 1, 1, 0,24, 0.00,60.00,Holiday        
38,1702447.2
578,189863.64
1575,1702447.2
2,2, 1, 2, 0, 1, 0.00,60.00,Monday         
38,1702447.2
578,189863.64
1575,1702447.2
2,2, 1, 2, 0, 2, 0.00,60.00,Monday         
38,1702447.2
578,189863.64
1575,1702447.2
2,2, 1, 2, 0, 3, 0.00,60.00,Monday         
38,1702447.2
578,189863.64
1575,1702447.2
2,2, 1, 2, 0, 4, 0.00,60.00,Monday         
38,1702447.2
578,189863.64
1575,1702447.2
2,2, 1, 2, 0, 5, 0.00,60.00,Monday         
38,1702447.2
578,189863.64
1575,1702447.2
2,2, 1, 2, 0, 6, 0.00,60.00,Monday         
38,1702447.2
578,189863.64
1575,1702447.2
2,2, 1, 2, 0, 7, 0.00,60.00,Monday         
38,21463957.856265
578,249928559.193276
1575,21463957.856265
2,2, 1, 2, 0, 8, 0.00,60.00,Monday         
38,21059439.3943376
578,137030942.649859
1575,21059439.3943376
2,2, 1, 2, 0, 9, 0.00,60.00,Monday         
38,42093495.5600058
578,61129251.5388016
1575,42093495.5600058
2,2, 1, 2, 0,10, 0.00,60.00,Monday         
38,41945388.9124806
578,30367372.392684
1575,41945388.9124806
2,2, 1, 2, 0,11, 0.00,60.00,Monday         
38,41900632.6353688
578,20434361.6095813
1575,41900632.6353688
2,2, 1, 2, 0,12, 0.00,60.00,Monday         
38,56986566.7595592
578,3897043.08344658
1575,56986566.7595592
2,2, 1, 2, 0,13, 0.00,60.00,Monday         
38,56977282.8837138
578,1375377.19031693
1575,56977282.8837138
2,2, 1, 2, 0,14, 0.00,60.00,Monday         
38,56975385.3887432
578,854386.38
1575,56975385.3887432
2,2, 1, 2, 0,15, 0.00,60.00,Monday         
38,56975385.3887432
578,854386.38
1575,56975385.3887432
2,2, 1, 2, 0,16, 0.00,60.00,Monday         
38,56975385.3887432
578,854386.38
1575,56975385.3887432
2,2, 1, 2, 0,17, 0.00,60.00,Monday         
38,56975385.3887432
578,854386.38
1575,56975385.3887432
2,2, 1, 2, 0,18, 0.00,60.00,Monday         
38,56976835.2548964
578,1253613.16849733
1575,56976835.2548964
2,2, 1, 2, 0,19, 0.00,60.00,Monday         
38,57017541.74152
578,12737402.1856648
1575,57017541.74152
2,2, 1, 2, 0,20, 0.00,60.00,Monday         
38,57034413.7367815
578,18212322.6503119
1575,57034413.7367815
2,2, 1, 2, 0,21, 0.00,60.00,Monday         
38,57049520.7009313
578,23547656.2968701
1575,57049520.7009313
2,2, 1, 2, 0,22, 0.00,60.00,Monday         
38,57064730.2624221
578,29143477.6558737
1575,57064730.2624221
2,2, 1, 2, 0,23, 0.00,60.00,Monday         
38,34981479.0384442
578,44412004.1737731
1575,34981479.0384442
2,2, 1, 2, 0,24, 0.00,60.00,Monday         
38,1702447.2
578,189863.64
1575,1702447.2
2,3, 1, 3, 0, 1, 0.00,60.00,Tuesday        
38,1702447.2
578,189863.64
1575,1702447.2
2,3, 1, 3, 0, 2, 0.00,60.00,Tuesday        
38,1702447.2
578,189863.64
1575,1702447.2
2,3, 1, 3, 0, 3, 0.00,60.00,Tuesday        
38,1702447.2
578,189863.64
1575,1702447.2
2,3, 1, 3, 0, 4, 0.00,60.00,Tuesday        
38,1702447.2
578,189863.64
1575,1702447.2
2,3, 1, 3, 0, 5, 0.00,60.00,Tuesday        
38,1702447.2
578,189863.64
1575,1702447.2
2,3, 1, 3, 0, 6, 0.00,60.00,Tuesday        
38,1702447.2
578,189863.64
1575,1702447.2
2,3, 1, 3, 0, 7, 0.00,60.00,Tuesday        
38,20973151.2399465
578,165671734.544835
1575,20973151.2399465
2,3, 1, 3, 0, 8, 0.00,60.00,Tuesday        
38,20806772.4477288
578,110854309.599653
1575,20806772.4477288
2,3, 1, 3, 0, 9, 0.00,60.00,Tuesday        
38,42001200.843844
578,48021284.7184199
1575,42001200.843844
2,3, 1, 3, 0,10, 0.00,60.00,Tuesday        
38,41909978.586281
578,24632033.9496902
1575,41909978.586281
2,3, 1, 3, 0,11, 0.00,60.00,Tuesday        
38,41882095.7689084
578,17314305.2888673
1575,41882095.7689084
2,3, 1, 3, 0,12, 0.00,60.00,Tuesday        
38,57452345.5151369
578,2865190.25553304
1575,57452345.5151369
2,3, 1, 3, 0,13, 0.00,60.00,Tuesday        
38,59775310.8338079
578,1046389.17953606
1575,59775310.8338079
2,3, 1, 3, 0,14, 0.00,60.00,Tuesday        
38,61340603.9451926
578,854386.38
1575,61340603.9451926
2,3, 1, 3, 0,15, 0.00,60.00,Tuesday        
38,61879837.9558823
578,854386.38
1575,61879837.9558823
2,3, 1, 3, 0,16, 0.00,60.00,Tuesday        
38,58090557.4945697
578,854386.38
1575,58090557.4945697
2,3, 1, 3, 0,17, 0.00,60.00,Tuesday        
38,56975385.3887432
578,854386.38
1575,56975385.3887432
2,3, 1, 3, 0,18, 0.00,60.00,Tuesday        
38,56975822.2545751
578,986182.828226406
1575,56975822.2545751
2,3, 1, 3, 0,19, 0.00,60.00,Tuesday        
38,57000920.6661658
578,8647637.28324461
1575,57000920.6661658
2,3, 1, 3, 0,20, 0.00,60.00,Tuesday        
38,57021172.5862158
578,15190729.3183046
1575,57021172.5862158
2,3, 1, 3, 0,21, 0.00,60.00,Tuesday        
38,57038425.004861
578,21156616.0096025
1575,57038425.004861
2,3, 1, 3, 0,22, 0.00,60.00,Tuesday        
38,57052543.6817665
578,26336546.6655732
1575,57052543.6817665
2,3, 1, 3, 0,23, 0.00,60.00,Tuesday        
38,34971515.0731274
578,42654052.1850713
1575,34971515.0731274
2,3, 1, 3, 0,24, 0.00,60.00,Tuesday        
38,1702447.2
578,189863.64
1575,1702447.2
2,4, 1, 4, 0, 1, 0.00,60.00,Wednesday      
38,1702447.2
578,189863.64
1575,1702447.2
2,4, 1, 4, 0, 2, 0.00,60.00,Wednesday      
38,1702447.2
578,189863.64
1575,1702447.2
2,4, 1, 4, 0, 3, 0.00,60.00,Wednesday      
38,1702447.2
578,189863.64
1575,1702447.2
2,4, 1, 4, 0, 4, 0.00,60.00,Wednesday      
38,1702447.2
578,189863.64
1575,1702447.2
2,4, 1, 4, 0, 5, 0.00,60.00,Wednesday      
38,1702447.2
578,189863.64
1575,1702447.2
2,4, 1, 4, 0, 6, 0.00,60.00,Wednesday      
38,1702447.2
578,189863.64
1575,1702447.2
2,4, 1, 4, 0, 7, 0.00,60.00,Wednesday      
38,21329896.6337615
578,236893221.233651
1575,21329896.6337615
2,4, 1, 4, 0, 8, 0.00,60.00,Wednesday      
38,21010331.7202295
578,137233765.511868
1575,21010331.7202295
2,4, 1, 4, 0, 9, 0.00,60.00,Wednesday      
38,42138897.0232475
578,75424392.5488634
1575,42138897.0232475
2,4, 1, 4, 0,10, 0.00,60.00,Wednesday      
38,42043801.3285656
578,58745145.252854
1575,42043801.3285656
2,4, 1, 4, 0,11, 0.00,60.00,Wednesday      
38,41976019.6444758
578,43666905.3818062
1575,41976019.6444758
2,4, 1, 4, 0,12, 0.00,60.00,Wednesday      
38,57006203.3990411
578,10003314.201437
1575,57006203.3990411
2,4, 1, 4, 0,13, 0.00,60.00,Wednesday      
38,56987074.4469853
578,4383429.45588002
1575,56987074.4469853
2,4, 1, 4, 0,14, 0.00,60.00,Wednesday      
38,56975599.1586596
578,919322.444295513
1575,56975599.1586596
2,4, 1, 4, 0,15, 0.00,60.00,Wednesday      
38,56975385.3887432
578,854386.38
1575,56975385.3887432
2,4, 1, 4, 0,16, 0.00,60.00,Wednesday      
38,56975935.5540022
578,1021614.36639631
1575,56975935.5540022
2,4, 1, 4, 0,17, 0.00,60.00,Wednesday      
38,56987134.4896035
578,4449573.4684384
1575,56987134.4896035
2,4, 1, 4, 0,18, 0.00,60.00,Wednesday      
38,57002240.2775697
578,9200006.1930205
1575,57002240.2775697
2,4, 1, 4, 0,19, 0.00,60.00,Wednesday      
38,57062171.7796915
578,28498352.9989325
1575,57062171.7796915
2,4, 1, 4, 0,20, 0.00,60.00,Wednesday      
38,57079021.4463371
578,34727730.5062314
1575,57079021.4463371
2,4, 1, 4, 0,21, 0.00,60.00,Wednesday      
38,57093008.3655372
578,40089618.6301956
1575,57093008.3655372
2,4, 1, 4, 0,22, 0.00,60.00,Wednesday      
38,57105762.6417759
578,44989214.8397619
1575,57105762.6417759
2,4, 1, 4, 0,23, 0.00,60.00,Wednesday      
38,35041608.3611454
578,66866153.1938334
1575,35041608.3611454
2,4, 1, 4, 0,24, 0.00,60.00,Wednesday      
38,1702447.2
578,189863.64
1575,1702447.2
2,5, 1, 5, 0, 1, 0.00,60.00,Thursday       
38,1702447.2
578,189863.64
1575,1702447.2
2,5, 1, 5, 0, 2, 0.00,60.00,Thursday       
38,1702447.2
578,189863.64
1575,1702447.2
2,5, 1, 5, 0, 3, 0.00,60.00,Thursday       
38,1702447.2
578,189863.64
1575,1702447.2
2,5, 1, 5, 0, 4, 0.00,60.00,Thursday       
38,1702447.2
578,189863.64
1575,1702447.2
2,5, 1, 5, 0, 5, 0.00,60.00,Thursday       
38,1702447.2
578,189863.64
1575,1702447.2
2,5, 1, 5, 0, 6, 0.00,60.00,Thursday       
38,1702447.2
578,189863.64
1575,1702447.2
2,5, 1, 5, 0, 7, 0.00,60.00,Thursday       
38,21781633.2723814
578,293996940.613884
1575,21781633.2723814
2,5, 1, 5, 0, 8, 0.00,60.00,Thursday       
38,21209676.0225413
578,151981904.389602
1575,21209676.0225413
2,5, 1, 5, 0, 9, 0.00,60.00,Thursday       
38,42212030.3903307
578,84111374.0985525
1575,42212030.3903307
2,5, 1, 5, 0,10, 0.00,60.00,Thursday       
38,42056666.1387788
578,58161574.5933485
1575,42056666.1387788
2,5, 1, 5, 0,11, 0.00,60.00,Thursday       
38,41951835.9791346
578,34473086.7032068
1575,41951835.9791346
2,5, 1, 5, 0,12, 0.00,60.00,Thursday       
38,57010854.2771851
578,10741112.634365
1575,57010854.2771851
2,5, 1, 5, 0,13, 0.00,60.00,Thursday       
38,56991532.7254539
578,5471603.12713962
1575,56991532.7254539
2,5, 1, 5, 0,14, 0.00,60.00,Thursday       
38,56976309.9891223
578,1121574.27728451
1575,56976309.9891223
2,5, 1, 5, 0,15, 0.00,60.00,Thursday       
38,56975385.3887432
578,854386.38
1575,56975385.3887432
2,5, 1, 5, 0,16, 0.00,60.00,Thursday       
38,56975385.3887432
578,854386.38
1575,56975385.3887432
2,5, 1, 5, 0,17, 0.00,60.00,Thursday       
38,56976243.9632934
578,1102859.26220133
1575,56976243.9632934
2,5, 1, 5, 0,18, 0.00,60.00,Thursday       
38,56984252.7229333
578,3435980.12281319
1575,56984252.7229333
2,5, 1, 5, 0,19, 0.00,60.00,Thursday       
38,57045493.4932065
578,21834110.9091605
1575,57045493.4932065
2,5, 1, 5, 0,20, 0.00,60.00,Thursday       
38,57063236.1720502
578,28148695.9510921
1575,57063236.1720502
2,5, 1, 5, 0,21, 0.00,60.00,Thursday       
38,57078026.8672185
578,33700244.9483281
1575,57078026.8672185
2,5, 1, 5, 0,22, 0.00,60.00,Thursday       
38,57091341.6076327
578,38807668.0569351
1575,57091341.6076327
2,5, 1, 5, 0,23, 0.00,60.00,Thursday       
38,35013337.7786797
578,55817057.511057
1575,35013337.7786797
2,5, 1, 5, 0,24, 0.00,60.00,Thursday       
38,1702447.2
578,189863.64
1575,1702447.2
2,6, 1, 6, 0, 1, 0.00,60.00,Friday         
38,1702447.2
578,189863.64
1575,1702447.2
2,6, 1, 6, 0, 2, 0.00,60.00,Friday         
38,1702447.2
578,189863.64
1575,1702447.2
2,6, 1, 6, 0, 3, 0.00,60.00,Friday         
38,1702447.2
578,189863.64
1575,1702447.2
2,6, 1, 6, 0, 4, 0.00,60.00,Friday         
38,1702447.2
578,189863.64
1575,1702447.2
2,6, 1, 6, 0, 5, 0.00,60.00,Friday         
38,1702447.2
578,189863.64
1575,1702447.2
2,6, 1, 6, 0, 6, 0.00,60.00,Friday         
38,1702447.2
578,189863.64
1575,1702447.2
2,6, 1, 6, 0, 7, 0.00,60.00,Friday         
38,21526759.5811081
578,260921299.529637
1575,21526759.5811081
2,6, 1, 6, 0, 8, 0.00,60.00,Friday         
38,21119411.6769032
578,146214440.001186
1575,21119411.6769032
2,6, 1, 6, 0, 9, 0.00,60.00,Friday         
38,42144086.7850551
578,71897974.3855659
1575,42144086.7850551
2,6, 1, 6, 0,10, 0.00,60.00,Friday         
38,41987831.9382469
578,40899537.0812451
1575,41987831.9382469
2,6, 1, 6, 0,11, 0.00,60.00,Friday         
38,41951138.0693627
578,33854660.1472829
1575,41951138.0693627
2,6, 1, 6, 0,12, 0.00,60.00,Friday         
38,57026312.5112196
578,15021435.830716
1575,57026312.5112196
2,6, 1, 6, 0,13, 0.00,60.00,Friday         
38,57001957.9231532
578,8508773.83687312
1575,57001957.9231532
2,6, 1, 6, 0,14, 0.00,60.00,Friday         
38,56977161.0248071
578,1374101.377358
1575,56977161.0248071
2,6, 1, 6, 0,15, 0.00,60.00,Friday         
38,56975428.5789453
578,867046.394419471
1575,56975428.5789453
2,6, 1, 6, 0,16, 0.00,60.00,Friday         
38,56975385.3887432
578,854386.38
1575,56975385.3887432
2,6, 1, 6, 0,17, 0.00,60.00,Friday         
38,56979896.2847068
578,2180523.45776877
1575,56979896.2847068
2,6, 1, 6, 0,18, 0.00,60.00,Friday         
38,56994653.0418631
578,6590803.48186594
1575,56994653.0418631
2,6, 1, 6, 0,19, 0.00,60.00,Friday         
38,57060741.6601771
578,27029186.4689687
1575,57060741.6601771
2,6, 1, 6, 0,20, 0.00,60.00,Friday         
38,57077509.3243876
578,33185133.8398143
1575,57077509.3243876
2,6, 1, 6, 0,21, 0.00,60.00,Friday         
38,57096607.3905505
578,40193799.4452247
1575,57096607.3905505
2,6, 1, 6, 0,22, 0.00,60.00,Friday         
38,57109264.2500516
578,45055894.3713388
1575,57109264.2500516
2,6, 1, 6, 0,23, 0.00,60.00,Friday         
38,35020105.0878938
578,58418354.1885337
1575,35020105.0878938
2,6, 1, 6, 0,24, 0.00,60.00,Friday         
38,1702447.2
578,189863.64
1575,1702447.2
2,7, 1, 7, 0, 1, 0.00,60.00,Saturday       
38,1702447.2
578,189863.64
1575,1702447.2
2,7, 1, 7, 0, 2, 0.00,60.00,Saturday       
38,1702447.2
578,189863.64
1575,1702447.2
2,7, 1, 7, 0, 3, 0.00,60.00,Saturday       
38,1702447.2
578,189863.64
1575,1702447.2
2,7, 1, 7, 0, 4, 0.00,60.00,Saturday       
38,1702447.2
578,189863.64
1575,1702447.2
2,7, 1, 7, 0, 5, 0.00,60.00,Saturday       
38,1702447.2
578,189863.64
1575,1702447.2
2,7, 1, 7, 0, 6, 0.00,60.00,Saturday       
38,1702447.2
578,189863.64
1575,1702447.2
2,7, 1, 7, 0, 7, 0.00,60.00,Saturday       
38,21351405.8871631
578,235762490.514665
1575,21351405.8871631
2,7, 1, 7, 0, 8, 0.00,60.00,Saturday       
38,37466211.085965
578,126277748.175747
1575,37466211.085965
2,7, 1, 7, 0, 9, 0.00,60.00,Saturday       
38,37288153.3413042
578,96476923.9230146
1575,37288153.3413042
2,7, 1, 7, 0,10, 0.00,60.00,Saturday       
38,46204291.6899287
578,77985556.2614587
1575,46204291.6899287
2,7, 1, 7, 0,11, 0.00,60.00,Saturday       
38,46133530.8764421
578,64210734.0080328
1575,46133530.8764421
2,7, 1, 7, 0,12, 0.00,60.00,Saturday       
38,46144869.5674295
578,70987579.0927518
1575,46144869.5674295
2,7, 1, 7, 0,13, 0.00,60.00,Saturday       
38,46026733.6724328
578,36889710.9918361
1575,46026733.6724328
2,7, 1, 7, 0,14, 0.00,60.00,Saturday       
38,45968317.8593421
578,19265008.4435631
1575,45968317.8593421
2,7, 1, 7, 0,15, 0.00,60.00,Saturday       
38,45944319.6716807
578,11775524.833292
1575,45944319.6716807
2,7, 1, 7, 0,16, 0.00,60.00,Saturday       
38,45934372.8694648
578,8611979.93098881
1575,45934372.8694648
2,7, 1, 7, 0,17, 0.00,60.00,Saturday       
38,45962881.666262
578,18512876.7274989
1575,45962881.666262
2,7, 1, 7, 0,18, 0.00,60.00,Saturday       
38,45999254.8458503
578,31485337.9913446
1575,45999254.8458503
2,7, 1, 7, 0,19, 0.00,60.00,Saturday       
38,46024847.609348
578,40977014.7759803
1575,46024847.609348
2,7, 1, 7, 0,20, 0.00,60.00,Saturday       
38,46043182.6503841
578,47880246.1275129
1575,46043182.6503842
2,7, 1, 7, 0,21, 0.00,60.00,Saturday       
38,46058130.4057706
578,53362205.5723979
1575,46058130.4057706
2,7, 1, 7, 0,22, 0.00,60.00,Saturday       
38,46034554.2218288
578,45078000.946423
1575,46034554.2218288
2,7, 1, 7, 0,23, 0.00,60.00,Saturday       
38,46167344.6604446
578,90670054.6905334
1575,46167344.6604446
2,7, 1, 7, 0,24, 0.00,60.00,Saturday       
38,1702447.2
578,189863.64
1575,1702447.2
2,8, 1, 8, 0, 1, 0.00,60.00,Sunday         
38,1702447.2
578,189863.64
1575,1702447.2
2,8, 1, 8, 0, 2, 0.00,60.00,Sunday         
38,1702447.2
578,189863.64
1575,1702447.2
2,8, 1, 8, 0, 3, 0.00,60.00,Sunday         
38,1702447.2
578,189863.64
1575,1702447.2
2,8, 1, 8, 0, 4, 0.00,60.00,Sunday         
38,1702447.2
578,189863.64
1575,1702447.2
2,8, 1, 8, 0, 5, 0.00,60.00,Sunday         
38,1702447.2
578,189863.64
1575,1702447.2
2,8, 1, 8, 0, 6, 0.00,60.00,Sunday         
38,1702447.2
578,189863.64
1575,1702447.2
2,8, 1, 8, 0, 7, 0.00,60.00,Sunday         
38,22031022.5277085
578,324431018.077707
1575,22031022.5277085
2,8, 1, 8, 0, 8, 0.00,60.00,Sunday         
38,37778776.9857668
578,155952745.461722
1575,37778776.9857668
2,8, 1, 8, 0, 9, 0.00,60.00,Sunday         
38,37315489.7453834
578,91222509.7206742
1575,37315489.7453834
2,8, 1, 8, 0,10, 0.00,60.00,Sunday         
38,37091787.8418341
578,48596093.1383402
1575,37091787.8418341
2,8, 1, 8, 0,11, 0.00,60.00,Sunday         
38,37020161.8367311
578,33506436.6806665
1575,37020161.8367311
2,8, 1, 8, 0,12, 0.00,60.00,Sunday         
38,36990656.8024437
578,27487657.1235042
1575,36990656.8024437
2,8, 1, 8, 0,13, 0.00,60.00,Sunday         
38,52104528.7182495
578,18920612.3535814
1575,52104528.7182495
2,8, 1, 8, 0,14, 0.00,60.00,Sunday         
38,52042666.2063888
578,1821969.62896391
1575,52042666.2063888
2,8, 1, 8, 0,15, 0.00,60.00,Sunday         
38,52038921.2087432
578,759454.56
1575,52038921.2087432
2,8, 1, 8, 0,16, 0.00,60.00,Sunday         
38,52038921.2087432
578,759454.56
1575,52038921.2087432
2,8, 1, 8, 0,17, 0.00,60.00,Sunday         
38,52040511.1147875
578,1212584.74689014
1575,52040511.1147875
2,8, 1, 8, 0,18, 0.00,60.00,Sunday         
38,52056066.5570004
578,5709198.90167269
1575,52056066.5570004
2,8, 1, 8, 0,19, 0.00,60.00,Sunday         
38,52072533.5282415
578,10729225.5751582
1575,52072533.5282415
2,8, 1, 8, 0,20, 0.00,60.00,Sunday         
38,52086566.6335242
578,15356857.1711149
1575,52086566.6335242
2,8, 1, 8, 0,21, 0.00,60.00,Sunday         
38,52096638.0900204
578,19010715.8803878
1575,52096638.0900204
2,8, 1, 8, 0,22, 0.00,60.00,Sunday         
38,52102364.3171515
578,21390325.5249289
1575,52102364.3171515
2,8, 1, 8, 0,23, 0.00,60.00,Sunday         
38,20534792.5856413
578,52141435.2710772
1575,20534792.5856413
2,8, 1, 8, 0,24, 0.00,60.00,Sunday         
38,1702447.2
578,189863.64
1575,1702447.2
2,9, 1, 9, 0, 1, 0.00,60.00,Monday         
38,1702447.2
578,189863.64
1575,1702447.2
2,9, 1, 9, 0, 2, 0.00,60.00,Monday         
38,1702447.2
578,189863.64
1575,1702447.2
2,9, 1, 9, 0, 3, 0.00,60.00,Monday         
38,1702447.2
578,189863.64
1575,1702447.2
2,9, 1, 9, 0, 4, 0.00,60.00,Monday         
38,1702447.2
578,189863.64
1575,1702447.2
2,9, 1, 9, 0, 5, 0.00,60.00,Monday         
38,1702447.2
578,189863.64
1575,1702447.2
2,9, 1, 9, 0, 6, 0.00,60.00,Monday         
38,1702447.2
578,189863.64
1575,1702447.2
2,9, 1, 9, 0, 7, 0.00,60.00,Monday         
38,21429431.8303153
578,247657019.711119
1575,21429431.8303153
2,9, 1, 9, 0, 8, 0.00,60.00,Monday         
38,21055743.0103365
578,139841626.112138
1575,21055743.0103365
2,9, 1, 9, 0, 9, 0.00,60.00,Monday         
38,42110925.0716857
578,66034541.9066378
1575,42110925.0716857
2,9, 1, 9, 0,10, 0.00,60.00,Monday         
38,41966572.0823753
578,35895513.1216641
1575,41966572.0823753
2,9, 1, 9, 0,11, 0.00,60.00,Monday         
38,41920305.1597796
578,25696982.9632261
1575,41920305.1597796
2,9, 1, 9, 0,12, 0.00,60.00,Monday         
38,56999621.0488247
578,7511981.72877998
1575,56999621.0488247
2,9, 1, 9, 0,13, 0.00,60.00,Monday         
38,56982708.2173935
578,2904612.86862124
1575,56982708.2173935
2,9, 1, 9, 0,14, 0.00,60.00,Monday         
38,56975421.3897407
578,864519.400355789
1575,56975421.3897407
2,9, 1, 9, 0,15, 0.00,60.00,Monday         
38,56975385.3887432
578,854386.38
1575,56975385.3887432
2,9, 1, 9, 0,16, 0.00,60.00,Monday         
38,56975385.3887432
578,854386.38
1575,56975385.3887432
2,9, 1, 9, 0,17, 0.00,60.00,Monday         
38,56977979.1574655
578,1586002.65621332
1575,56977979.1574655
2,9, 1, 9, 0,18, 0.00,60.00,Monday         
38,56989658.4891048
578,4923694.62162943
1575,56989658.4891048
2,9, 1, 9, 0,19, 0.00,60.00,Monday         
38,57047429.2241239
578,22064645.539589
1575,57047429.2241239
2,9, 1, 9, 0,20, 0.00,60.00,Monday         
38,57064004.5628272
578,28024404.9241336
1575,57064004.5628272
2,9, 1, 9, 0,21, 0.00,60.00,Monday         
38,57078351.5686086
578,33456758.9580749
1575,57078351.5686086
2,9, 1, 9, 0,22, 0.00,60.00,Monday         
38,57093519.8385693
578,39231151.1538687
1575,57093519.8385693
2,9, 1, 9, 0,23, 0.00,60.00,Monday         
38,35022633.8041181
578,58517822.7396693
1575,35022633.8041181
2,9, 1, 9, 0,24, 0.00,60.00,Monday         
38,1702447.2
578,189863.64
1575,1702447.2
2,10, 1,10, 0, 1, 0.00,60.00,Tuesday        
38,1702447.2
578,189863.64
1575,1702447.2
2,10, 1,10, 0, 2, 0.00,60.00,Tuesday        
38,1702447.2
578,189863.64
1575,1702447.2
2,10, 1,10, 0, 3, 0.00,60.00,Tuesday        
38,1702447.2
578,189863.64
1575,1702447.2
2,10, 1,10, 0, 4, 0.00,60.00,Tuesday        
38,1702447.2
578,189863.64
1575,1702447.2
2,10, 1,10, 0, 5, 0.00,60.00,Tuesday        
38,1702447.2
578,189863.64
1575,1702447.2
2,10, 1,10, 0, 6, 0.00,60.00,Tuesday        
38,1702447.2
578,189863.64
1575,1702447.2
2,10, 1,10, 0, 7, 0.00,60.00,Tuesday        
38,21579607.2111234
578,267055648.085482
1575,21579607.2111234
2,10, 1,10, 0, 8, 0.00,60.00,Tuesday        
38,21123107.0937949
578,145170675.93315
1575,21123107.0937949
2,10, 1,10, 0, 9, 0.00,60.00,Tuesday        
38,42135422.7707211
578,69467353.7851
1575,42135422.7707211
2,10, 1,10, 0,10, 0.00,60.00,Tuesday        
38,41981596.3210708
578,38986028.8898738
1575,41981596.3210708
2,10, 1,10, 0,11, 0.00,60.00,Tuesday        
38,41931903.1063322
578,28397014.4376773
1575,41931903.1063322
2,10, 1,10, 0,12, 0.00,60.00,Tuesday        
38,57006540.6720495
578,9330852.84696785
1575,57006540.6720495
2,10, 1,10, 0,13, 0.00,60.00,Tuesday        
38,56989108.0178155
578,4681637.76479654
1575,56989108.0178155
2,10, 1,10, 0,14, 0.00,60.00,Tuesday        
38,56975864.2007944
578,989210.850737141
1575,56975864.2007944
2,10, 1,10, 0,15, 0.00,60.00,Tuesday        
38,56975385.3887432
578,854386.38
1575,56975385.3887432
2,10, 1,10, 0,16, 0.00,60.00,Tuesday        
38,56975385.3887432
578,854386.38
1575,56975385.3887432
2,10, 1,10, 0,17, 0.00,60.00,Tuesday        
38,56976079.1581564
578,1049943.16345903
1575,56976079.1581564
2,10, 1,10, 0,18, 0.00,60.00,Tuesday        
38,56986066.7497809
578,3888346.62020519
1575,56986066.7497809
2,10, 1,10, 0,19, 0.00,60.00,Tuesday        
38,57052003.0357692
578,23316398.7199723
1575,57052003.0357692
2,10, 1,10, 0,20, 0.00,60.00,Tuesday        
38,57071210.8605547
578,30129025.4700071
1575,57071210.8605547
2,10, 1,10, 0,21, 0.00,60.00,Tuesday        
38,57088955.2011967
578,36670045.2678979
1575,57088955.2011967
2,10, 1,10, 0,22, 0.00,60.00,Tuesday        
38,57105837.8752364
578,42989994.5078605
1575,57105837.8752364
2,10, 1,10, 0,23, 0.00,60.00,Tuesday        
38,35031272.9085203
578,60925259.1551137
1575,35031272.9085203
2,10, 1,10, 0,24, 0.00,60.00,Tuesday        
38,1702447.2
578,189863.64
1575,1702447.2
2,11, 1,11, 0, 1, 0.00,60.00,Wednesday      
38,1702447.2
578,189863.64
1575,1702447.2
2,11, 1,11, 0, 2, 0.00,60.00,Wednesday      
38,1702447.2
578,189863.64
1575,1702447.2
2,11, 1,11, 0, 3, 0.00,60.00,Wednesday      
38,1702447.2
578,189863.64
1575,1702447.2
2,11, 1,11, 0, 4, 0.00,60.00,Wednesday      
38,1702447.2
578,189863.64
1575,1702447.2
2,11, 1,11, 0, 5, 0.00,60.00,Wednesday      
38,1702447.2
578,189863.64
1575,1702447.2
2,11, 1,11, 0, 6, 0.00,60.00,Wednesday      
38,1702447.2
578,189863.64
1575,1702447.2
2,11, 1,11, 0, 7, 0.00,60.00,Wednesday      
38,21725237.5088159
578,282649497.000582
1575,21725237.5088159
2,11, 1,11, 0, 8, 0.00,60.00,Wednesday      
38,21195241.0150934
578,151380720.240926
1575,21195241.0150934
2,11, 1,11, 0, 9, 0.00,60.00,Wednesday      
38,42212127.7207862
578,84594335.109278
1575,42212127.7207862
2,11, 1,11, 0,10, 0.00,60.00,Wednesday      
38,42065664.7382857
578,60297295.7081211
1575,42065664.7382857
2,11, 1,11, 0,11, 0.00,60.00,Wednesday      
38,41959321.2225583
578,36318978.3500205
1575,41959321.2225583
2,11, 1,11, 0,12, 0.00,60.00,Wednesday      
38,57012752.309042
578,11227478.9122606
1575,57012752.309042
2,11, 1,11, 0,13, 0.00,60.00,Wednesday      
38,56992074.5209465
578,5614801.03665858
1575,56992074.5209465
2,11, 1,11, 0,14, 0.00,60.00,Wednesday      
38,56976258.3421637
578,1106125.77066641
1575,56976258.3421637
2,11, 1,11, 0,15, 0.00,60.00,Wednesday      
38,56975385.3887432
578,854386.38
1575,56975385.3887432
2,11, 1,11, 0,16, 0.00,60.00,Wednesday      
38,56975385.3887432
578,854386.38
1575,56975385.3887432