Program Version,EnergyPlus, Linux, VERSION 7.1.0.012, YMD=2012.07.17 18:27
1,5,Environment Title[],Latitude[degrees],Longitude[degrees],Time Zone[],Elevation[m]
2,6,Day of Simulation[],Month[],Day of Month[],DST Indicator[1=yes 0=no],Hour[],StartMinute[],EndMinute[],DayType
3,3,Cumulative Day of Simulation[],Month[],Day of Month[],DST Indicator[1=yes 0=no],DayType  ! When Daily Report Variables Requested
4,2,Cumulative Days of Simulation[],Month[]  ! When Monthly Report Variables Requested
5,1,Cumulative Days of Simulation[] ! When Run Period Report Variables Requested
6,1,Environment,Outdoor Dry Bulb [C] !TimeStep
152,1,ZN001:WALL001:WIN001,Surface Ext Solar Incident[W/m2] !TimeStep
153,1,ZN001:WALL001:WIN001,Window Solar Absorbed:All Glass Layers [W] !TimeStep
154,1,ZN001:WALL001:WIN001,Window Transmitted Solar [W] !TimeStep
155,1,ZN001:WALL001:WIN001,Window Heat Gain [W] !TimeStep
156,1,ZN001:WALL001:WIN001,Window Heat Loss [W] !TimeStep
157,1,ZN001:WALL001:WIN001,Surface Inside Face Temperature [C] !TimeStep
158,1,ZN001:WALL001:WIN001,Surface Outside Face Temperature [C] !TimeStep
159,1,ZN001:WALL001:WIN001,Storm Window On/Off Flag [] !TimeStep
232,1,WEST ZONE,Zone/Sys Sensible Heating Rate [W] !TimeStep
233,1,WEST ZONE,Zone/Sys Sensible Cooling Rate [W] !TimeStep
234,1,WEST ZONE,Zone/Sys Air Temperature [C] !TimeStep
267,1,EAST ZONE,Zone/Sys Sensible Heating Rate [W] !TimeStep
268,1,EAST ZONE,Zone/Sys Sensible Cooling Rate [W] !TimeStep
269,1,EAST ZONE,Zone/Sys Air Temperature [C] !TimeStep
302,1,NORTH ZONE,Zone/Sys Sensible Heating Rate [W] !TimeStep
303,1,NORTH ZONE,Zone/Sys Sensible Cooling Rate [W] !TimeStep
304,1,NORTH ZONE,Zone/Sys Air Temperature [C] !TimeStep
End of Data Dictionary
1,CHICAGO_IL_USA ANNUAL HEATING 99% DESIGN CONDITIONS DB,  41.78, -87.75,  -6.00, 190.00
2,1, 1,21, 0, 1, 0.00,10.00,WinterDesignDay
6,-17.3
152,0.0
153,0.0
154,0.0
155,0.0
156,718.729788974515
157,2.86316310200607
158,-11.3282739926854
159,1.
232,1014.39143832495
233,0.0
234,15.0000000000002
267,2337.17804608144
268,0.0
269,15.
302,4274.68274241329
303,0.0
304,15.0000000000007
2,1, 1,21, 0, 1,10.00,20.00,WinterDesignDay
6,-17.3
152,0.0
153,0.0
154,0.0
155,0.0
156,716.992972668496
157,2.81633366743603
158,-11.3469387753519
159,1.
232,1059.01699705202
233,0.0
234,15.0000000000001
267,2369.20486444013
268,0.0
269,15.0000000000002
302,4305.45193227933
303,0.0
304,15.0000000000001
2,1, 1,21, 0, 1,20.00,30.00,WinterDesignDay
6,-17.3
152,0.0
153,0.0
154,0.0
155,0.0
156,715.291695487557
157,2.77044182823659
158,-11.3652262250768
159,1.
232,1102.59786229445
233,0.0
234,15.0000000000003
267,2400.61237885745
268,0.0
269,15.
302,4335.53448675415
303,0.0
304,15.0000000000007
2,1, 1,21, 0, 1,30.00,40.00,WinterDesignDay
6,-17.3
152,0.0
153,0.0
154,0.0
155,0.0
156,713.624626831174
157,2.725452974973
158,-11.3831503266885
159,1.
232,1145.05176138634
233,0.0
234,15.0000000000003
267,2431.41145131844
268,0.0
269,15.0000000000006
302,4364.95039276814
303,0.0
304,15.0000000000003
2,1, 1,21, 0, 1,40.00,50.00,WinterDesignDay
6,-17.3
152,0.0
153,0.0
154,0.0
155,0.0
156,711.990341483271
157,2.68132989704577
158,-11.4007260748575
159,1.
232,1186.16402679514
233,0.0
234,15.0000000000002
267,2461.61309145922
268,0.0
269,15.0000000000007
302,4393.71900122676
303,0.0
304,15.0000000000005
2,1, 1,21, 0, 1,50.00,60.00,WinterDesignDay
6,-17.3
152,0.0
153,0.0
154,0.0
155,0.0
156,710.387037346567
157,2.63802530066192
158,-11.4179724081938
159,1.
232,1226.31630690732
233,0.0
234,15.
267,2491.22841343458
268,0.0
269,15.0000000000003
302,4421.85903656936
303,0.0
304,15.0000000000001
2,1, 1,21, 0, 2, 0.00,10.00,WinterDesignDay
6,-17.3
152,0.0
153,0.0
154,0.0
155,0.0
156,708.814109992441
157,2.59552317963835
158,-11.4348961074851
159,1.
232,1266.59088176715
233,0.0
234,15.0000000000002
267,2520.26859815238
268,0.0
269,15.0000000000005
302,4449.38860755216
303,0.0
304,15.0000000000005
2,1, 1,21, 0, 2,10.00,20.00,WinterDesignDay
6,-17.3
152,0.0
153,0.0
154,0.0
155,0.0
156,707.273271543983
157,2.55386929428278
158,-11.4514795861819
159,1.
232,1306.26518021748
233,0.0
234,15.
267,2548.74486061725
268,0.0
269,15.
302,4476.32521971125
303,0.0
304,15.0000000000001
2,1, 1,21, 0, 2,20.00,30.00,WinterDesignDay
6,-17.3
152,0.0
153,0.0
154,0.0
155,0.0
156,705.763389993164
157,2.51303571690812
158,-11.4677335528529
159,1.
232,1345.30969847541
233,0.0
234,15.0000000000003
267,2576.6684217491
268,0.0
269,15.0000000000004
302,4502.68578963656
303,0.0
304,15.0000000000008
2,1, 1,21, 0, 2,30.00,40.00,WinterDesignDay
6,-17.3
152,0.0
153,0.0
154,0.0
155,0.0
156,704.283670319672
157,2.47300186001081
158,-11.4836664338463
159,1.
232,1383.6923897428
233,0.0
234,15.
267,2604.05048271481
268,0.0
269,15.
302,4528.48666069185
303,0.0
304,15.0000000000001
2,1, 1,21, 0, 2,40.00,50.00,WinterDesignDay
6,-17.3
152,0.0
153,0.0
154,0.0
155,0.0
156,702.833305926705
157,2.43374685764837
158,-11.4992866898779
159,1.
232,1421.3910755475
233,0.0
234,15.0000000000003
267,2630.90219933469
268,0.0
269,15.0000000000005
302,4553.74361988223
303,0.0
304,15.0000000000008
2,1, 1,21, 0, 2,50.00,60.00,WinterDesignDay
6,-17.3
152,0.0
153,0.0
154,0.0
155,0.0
156,701.411486996973
157,2.3952497008288
158,-11.5146028268265
159,1.
232,1458.39050860911
233,0.0
234,15.0000000000003
267,2657.23465549857
268,0.0
269,15.
302,4578.47191533553
303,0.0
304,15.0000000000003
2,1, 1,21, 0, 3, 0.00,10.00,WinterDesignDay
6,-17.3
152,0.0
153,0.0
154,0.0
155,0.0
156,700.017409973987
157,2.35748949379439
158,-11.5296232985653
159,1.
232,1494.6800574083
233,0.0
234,15.0000000000003
267,2683.05883654032
268,0.0
269,15.0000000000005
302,4602.68627417106
303,0.0
304,15.
2,1, 1,21, 0, 3,10.00,20.00,WinterDesignDay
6,-17.3
152,0.0
153,0.0
154,0.0
155,0.0
156,698.650282805705
157,2.3204456010572
158,-11.5443564485057
159,1.
232,1530.2521558811
233,0.0
234,15.0000000000003
267,2708.38560418686
268,0.0
269,15.
302,4626.40092037421
303,0.0
304,15.0000000000003
2,1, 1,21, 0, 3,20.00,30.00,WinterDesignDay
6,-17.3
152,0.0
153,0.0
154,0.0
155,0.0
156,697.309327592967
157,2.28409772309129
158,-11.5588104794256
159,1.
232,1565.1012135066
233,0.0
234,15.0000000000003
267,2733.22567454868
268,0.0
269,15.0000000000007
302,4649.62959256968
303,0.0
304,15.0000000000006
2,1, 1,21, 0, 3,30.00,40.00,WinterDesignDay
6,-17.3
152,0.0
153,0.0
154,0.0
155,0.0
156,695.993781626414
157,2.24842592765845
158,-11.5729934410932
159,1.
232,1599.22278236904
233,0.0
234,15.
267,2757.58959983102
268,0.0
269,15.0000000000003
302,4672.38556150503
303,0.0
304,15.0000000000001
2,1, 1,21, 0, 3,40.00,50.00,WinterDesignDay
6,-17.3
152,0.0
153,0.0
154,0.0
155,0.0
156,694.70289734496
157,2.21341065153808
158,-11.5869132296983
159,1.
232,1632.61285338525
233,0.0
234,15.0000000000004
267,2781.4877539619
268,0.0
269,15.0000000000005
302,4694.68164717712
303,0.0
304,15.0000000000008
2,1, 1,21, 0, 3,50.00,60.00,WinterDesignDay
6,-17.3
152,0.0
153,0.0
154,0.0
155,0.0
156,693.43594149389
157,2.17903268008058
158,-11.6005775961451
159,1.
232,1665.26719011134
233,0.0
234,15.
267,2804.9303218062
268,0.0
269,15.0000000000003
302,4716.53023549957
303,0.0
304,15.0000000000003
2,1, 1,21, 0, 4, 0.00,10.00,WinterDesignDay
6,-17.3
152,0.0
153,0.0
154,0.0
155,0.0
156,692.192193573868
157,2.14527310751214
158,-11.6139941619682
159,1.
232,1697.18061741991
233,0.0
234,15.0000000000003
267,2827.92729156143
268,0.0
269,15.0000000000005
302,4737.94329452661
303,0.0
304,15.0000000000006
2,1, 1,21, 0, 4,10.00,20.00,WinterDesignDay
6,-17.3
152,0.0
153,0.0
154,0.0
155,0.0
156,690.970943547075
157,2.11211327686692
158,-11.6271704433233
159,1.
232,1728.34616690882
233,0.0
234,15.0000000000005
267,2850.48844975196
268,0.0
269,15.
302,4758.93239011975
303,0.0
304,15.0000000000001
2,1, 1,21, 0, 4,20.00,30.00,WinterDesignDay
6,-17.3
152,0.0
153,0.0
154,0.0
155,0.0
156,689.771488604482
157,2.07953469430981
158,-11.6401138850443
159,1.
232,1758.75393238542
233,0.0
234,15.0000000000002
267,2872.62337836272
268,0.0
269,15.0000000000007
302,4779.50870114012
303,0.0
304,15.0000000000005
2,1, 1,21, 0, 4,30.00,40.00,WinterDesignDay
6,-17.3
152,0.0
153,0.0
154,0.0
155,0.0
156,688.59312856189
157,2.04751890646054
158,-11.6528319092962
159,1.
232,1788.38937643362
233,0.0
234,15.0000000000002
267,2894.34145361729
268,0.0
269,15.0000000000001
302,4799.68303405996
303,0.0
304,15.0000000000001
2,1, 1,21, 0, 4,40.00,50.00,WinterDesignDay
6,-17.3
152,0.0
153,0.0
154,0.0
155,0.0
156,687.435159040974
157,2.01604731767492
158,-11.6653319878146
159,1.
232,1817.23056774307
233,0.0
234,15.0000000000002
267,2915.65184608053
268,0.0
269,15.0000000000005
302,4819.46583709494
303,0.0
304,15.0000000000008
2,1, 1,21, 0, 4,50.00,60.00,WinterDesignDay
6,-17.3
152,0.0
153,0.0
154,0.0
155,0.0
156,686.296860672649
157,1.98510090016248
158,-11.6776217562597
159,1.
232,1845.24315886778
233,0.0
234,15.0000000000002
267,2936.56352171746
268,0.0
269,15.
302,4838.8672137601
303,0.0
304,15.0000000000001
2,1, 1,21, 0, 5, 0.00,10.00,WinterDesignDay
6,-17.3
152,0.0
153,0.0
154,0.0
155,0.0
156,685.177480356712
157,1.95465969022831
158,-11.6897092125217
159,1.
232,1872.36989940567
233,0.0
234,15.
267,2957.08524373933
268,0.0
269,15.0000000000007
302,4857.89693597109
303,0.0
304,15.0000000000008
2,1, 1,21, 0, 5,10.00,20.00,WinterDesignDay
6,-17.3
152,0.0
153,0.0
154,0.0
155,0.0
156,683.909985045016
157,1.92454777841976
158,-11.6992751055914
159,1.
232,1898.33157066849
233,0.0
234,15.0000000000004
267,2977.22557497884
268,0.0
269,15.0000000000001
302,4876.56445658395
303,0.0
304,15.0000000000001
2,1, 1,21, 0, 5,20.00,30.00,WinterDesignDay
6,-17.3
152,0.0
153,0.0
154,0.0
155,0.0
156,682.987690953416
157,1.8952498066609
158,-11.713254590285
159,1.
232,1923.38220477434
233,0.0
234,15.0000000000004
267,2996.99288072587
268,0.0
269,15.0000000000005
302,4894.87892151973
303,0.0
304,15.0000000000008
2,1, 1,21, 0, 5,30.00,40.00,WinterDesignDay
6,-17.3
152,0.0
153,0.0
154,0.0
155,0.0
156,681.760253433607
157,1.86599173830905
158,-11.7225876431785
159,1.
232,1945.58559178926
233,0.0
234,15.0000000000006
267,3016.39533183898
268,0.0
269,15.
302,4912.84918135605
303,0.0
304,15.0000000000004
2,1, 1,21, 0, 5,40.00,50.00,WinterDesignDay
6,-17.3
152,0.0
153,0.0
154,0.0
155,0.0
156,680.687425640013
157,1.83750608193662
158,-11.7335690195713
159,1.
232,1968.96984484748
233,0.0
234,15.
267,3035.44090813538
268,0.0
269,15.0000000000008
302,4930.4838025454
303,0.0
304,15.
2,1, 1,21, 0, 5,50.00,60.00,WinterDesignDay
6,-17.3
152,0.0
153,0.0
154,0.0
155,0.0
156,679.647367741416
157,1.8093045711986
158,-11.7447355764287
159,1.
232,1992.14863099382
233,0.0
234,15.0000000000006
267,3054.13740192941
268,0.0
269,15.0000000000003
302,4947.79107816597
303,0.0
304,15.0000000000008
2,1, 1,21, 0, 6, 0.00,10.00,WinterDesignDay
6,-17.3
152,0.0
153,0.0
154,0.0
155,0.0
156,678.627811096388
157,1.78151227067292
158,-11.755797068208
159,1.
232,2015.15528578028
233,0.0
234,15.
267,3072.49242176947
268,0.0
269,15.0000000000005
302,4964.77903833381
303,0.0
304,15.0000000000001
2,1, 1,21, 0, 6,10.00,20.00,WinterDesignDay
6,-17.3
152,0.0
153,0.0
154,0.0
155,0.0
156,677.625927757956
157,1.75415706273543
158,-11.7666933965969
159,1.
232,2037.95886851253
233,0.0
234,15.0000000000006
267,3090.51339625523
268,0.0
269,15.0000000000001
302,4981.45546025274
303,0.0
304,15.0000000000008
2,1, 1,21, 0, 6,20.00,30.00,WinterDesignDay
6,-17.3
152,0.0
153,0.0
154,0.0
155,0.0
156,676.640693638168
157,1.72723810809509
158,-11.7774152747078
159,1.
232,2060.538541893
233,0.0
234,15.
267,3108.20757790372
268,0.0
269,15.0000000000005
302,4997.82787780184
303,0.0
304,15.0000000000004
2,1, 1,21, 0, 6,30.00,40.00,WinterDesignDay
6,-17.3
152,0.0
153,0.0
154,0.0
155,0.0
156,675.671580247392
157,1.70074868256199
158,-11.7879640751597
159,1.
232,2082.88048671676
233,0.0
234,15.0000000000006
267,3125.58204690615
268,0.0
269,15.0000000000003
302,5013.90359069205
303,0.0
304,15.0000000000006
2,1, 1,21, 0, 6,40.00,50.00,WinterDesignDay
6,-17.3
152,0.0
153,0.0
154,0.0
155,0.0
156,674.718190047711
157,1.67468061728891
158,-11.7983431893918
159,1.
232,2104.97542660245
233,0.0
234,15.
267,3142.64371479335
268,0.0
269,15.0000000000005
302,5029.68967306538
303,0.0
304,15.0000000000003
2,1, 1,21, 0, 6,50.00,60.00,WinterDesignDay
6,-17.3
152,0.0
153,0.0
154,0.0
155,0.0
156,673.780171172667
157,1.6490254963918
158,-11.8085562392321
159,1.
232,2126.81714764456
233,0.0
234,15.0000000000006
267,3159.39932795495
268,0.0
269,15.0000000000001
302,5045.1929816829
303,0.0
304,15.
2,1, 1,21, 0, 7, 0.00,10.00,WinterDesignDay
6,-17.3
152,0.0
153,0.0
154,0.0
155,0.0
156,672.495421138564
157,1.62954625443217
158,-11.8168188982058
159,1.
232,2125.39139988671
233,0.0
234,15.
267,3017.16017955471
268,0.0
269,15.0000000000008
302,4948.27067686415
303,0.0
304,15.0000000000008
2,1, 1,21, 0, 7,10.00,20.00,WinterDesignDay
6,-17.3
152,0.0
153,0.0
154,0.0
155,0.0
156,671.578187082979
157,1.60515818327349
158,-11.8261480100458
159,1.
232,2146.39142764905
233,0.0
234,15.0000000000002
267,3029.76634079252
268,0.0
269,15.0000000000006
302,4960.80754327379
303,0.0
304,15.0000000000004
2,1, 1,21, 0, 7,20.00,30.00,WinterDesignDay
6,-17.3
152,0.0
153,0.0
154,0.0
155,0.0
156,670.687852127327
157,1.58095915625552
158,-11.8356959710312
159,1.
232,2167.25854319849
233,0.0
234,15.
267,3043.35139080614
268,0.0
269,15.0000000000001
302,4973.9592494583
303,0.0
304,15.0000000000006
2,1, 1,21, 0, 7,30.00,40.00,WinterDesignDay
6,-17.3
152,0.0
153,0.0
154,0.0
155,0.0
156,669.813061009007
157,1.55705863706555
158,-11.8451862128705
159,1.
232,2187.8973225123
233,0.0
234,15.0000000000006
267,3057.07664371833
268,0.0
269,15.0000000000005
302,4987.13620675109
303,0.0
304,15.0000000000001
2,1, 1,21, 0, 7,40.00,50.00,WinterDesignDay
6,-17.3
152,0.0
153,0.0
154,0.0
155,0.0
156,668.952119432518
157,1.53349930662989
158,-11.8545541801537
159,1.
232,2208.29305710058
233,0.0
234,15.
267,3070.76635409718
268,0.0
269,15.0000000000001
302,5000.2208826774
303,0.0
304,15.0000000000008
2,1, 1,21, 0, 7,50.00,60.00,WinterDesignDay
6,-17.3
152,0.0
153,0.0
154,0.0
155,0.0
156,668.104458975202
157,1.51028879893886
158,-11.8637856010988
159,1.
232,2228.4402586128
233,0.0
234,15.0000000000006
267,3084.34822998082
268,0.0
269,15.0000000000003
302,5013.16656305739
303,0.0
304,15.0000000000001
2,1, 1,21, 0, 8, 0.00,10.00,WinterDesignDay
6,-17.3
152,0.0
153,0.0
154,0.0
155,0.0
156,665.823080393318
157,1.51050375423426
158,-11.8657352630804
159,1.
232,4892.26636854198
233,0.0
234,20.091278586397
267,5266.46610212101
268,0.0
269,20.0561266275559
302,8790.23738489897
303,0.0
304,20.0137953628467
2,1, 1,21, 0, 8,10.00,20.00,WinterDesignDay
6,-17.3
152,8.640721846791901E-011
153,1.462857684360038E-010
154,5.743112864346208E-010
155,0.0
156,716.505956322089
157,2.87436649001239
158,-11.3163138872902
159,1.
232,3043.0261920115
233,0.0
234,20.0000000000008
267,3456.30652261652
268,0.0
269,20.0000000000014
302,6060.08268914836
303,0.0
304,20.0000000000003
2,1, 1,21, 0, 8,20.00,30.00,WinterDesignDay
6,-17.3
152,12.2538617992135
153,20.6004856335029
154,83.17128029237
155,0.0
156,628.784024795096
157,3.08191179183001
158,-11.1660599377464
159,1.
232,4733.83098400944
233,0.0
234,20.0000000000012
267,5079.00198872914
268,0.0
269,20.0000000000002
302,8443.60269446792
303,0.0
304,20.0000000000001
2,1, 1,21, 0, 8,30.00,40.00,WinterDesignDay
6,-17.3
152,86.4189925174799
153,144.700198201993
154,596.802147029925
155,0.0
156,66.4428863413439
157,3.87747826191833
158,-10.3587508780735
159,1.
232,4224.67532918748
233,0.0
234,20.0000000000008
267,4611.88136320182
268,0.0
269,19.9999999999997
302,7777.16454109155
303,0.0
304,20.0000000000011
2,1, 1,21, 0, 8,40.00,50.00,WinterDesignDay
6,-17.3
152,179.608806997279
153,299.200293563024
154,1260.31668165627
155,656.548815001671
156,0.0
157,4.86499872608033
158,-9.38796919296357
159,1.
232,4105.6859381721
233,0.0
234,20.0000000000007
267,4560.78774241041
268,0.0
269,20.
302,7701.25003258902
303,0.0
304,20.0000000000006
2,1, 1,21, 0, 8,50.00,60.00,WinterDesignDay
6,-17.3
152,258.750244609091
153,429.090451404262
154,1842.8766403232
155,1287.82749898061
156,0.0
157,5.71792640936701
158,-8.58075745653133
159,1.
232,3973.46568488325
233,0.0
234,20.0000000000001
267,4513.90825606008
268,0.0
269,20.
302,7634.88563713414
303,0.0
304,20.0000000000001
2,1, 1,21, 0, 9, 0.00,10.00,WinterDesignDay
6,-17.3
152,329.433797109691
153,542.701612558426
154,2377.92016119886
155,1901.88475397561
156,0.0
157,7.01706643593928
158,-7.65663541614794
159,1.
232,1641.53895995101
233,0.0
234,19.9999999999999
267,3328.73485736953
268,0.0
269,19.9999999999995
302,5352.45029684629
303,0.0
304,20.0000000000003
2,1, 1,21, 0, 9,10.00,20.00,WinterDesignDay
6,-17.3
152,392.503584781944
153,641.589619175023
154,2866.61995636656
155,2422.84503895005
156,0.0
157,7.74232105405616
158,-7.02905211576399
159,1.
232,1479.79396866451
233,0.0
234,19.9999999999997
267,3269.40215645854
268,0.0
269,20.0000000000004
302,5259.43496088494
303,0.0
304,20.0000000000006
2,1, 1,21, 0, 9,20.00,30.00,WinterDesignDay
6,-17.3
152,449.126074786648
153,727.908359042535
154,3313.86187872808
155,2897.4551776116
156,0.0
157,8.36972805890451
158,-6.48668915518692
159,1.
232,1335.26687598794
233,0.0
234,20.0000000000001
267,3216.79259681069
268,0.0
269,19.9999999999998
302,5182.3430049316
303,0.0
304,20.0000000000001
2,1, 1,21, 0, 9,30.00,40.00,WinterDesignDay
6,-17.3
152,500.34115125407
153,803.615097265405
154,3724.74059009736
155,3331.00011955279
156,0.0
157,8.93502742529756
158,-6.00290692399034
159,1.
232,1199.78864441674
233,0.0
234,20.
267,3163.93237984974
268,0.0
269,19.9999999999995
302,5109.906554658
303,0.0
304,20.
2,1, 1,21, 0, 9,40.00,50.00,WinterDesignDay
6,-17.3
152,546.98007093968
153,870.339264147332
154,4103.62144017168
155,3728.19250457843
156,0.0
157,9.44677457339321
158,-5.57330612203179
159,1.
232,1071.83859932157
233,0.0
234,19.9999999999998
267,3108.13217714101
268,0.0
269,20.0000000000004
302,5038.978537249
303,0.0
304,19.9999999999997
2,1, 1,21, 0, 9,50.00,60.00,WinterDesignDay
6,-17.3
152,581.70454268815
153,916.948566384976
154,4398.27598424669
155,4032.85500088956
156,0.0
157,9.83795935096862
158,-5.26528960598773
159,1.
232,955.114093293091
233,0.0
234,19.9999999999998
267,3047.80398244078
268,0.0
269,20.0000000000003
302,4967.92172292691
303,0.0
304,20.0000000000005
2,1, 1,21, 0,10, 0.00,10.00,WinterDesignDay
6,-17.3
152,620.496513089842
153,968.754827759715
154,4719.68325585108
155,4365.19052059587
156,0.0
157,10.2593413847441
158,-4.9226761480154
159,1.
232,842.419386704679
233,0.0
234,19.9999999999998
267,2982.07681434375
268,0.0
269,20.0000000000005
302,4895.83519301431
303,0.0
304,19.9999999999998
2,1, 1,21, 0,10,10.00,20.00,WinterDesignDay
6,-17.3
152,656.241324896856
153,1014.97525840491
154,5017.6875522402
155,4671.23567645965
156,0.0
157,10.6482317412544
158,-4.61394313596963
159,1.
232,734.72426955378
233,0.0
234,19.9999999999999
267,2910.62514613801
268,0.0
269,19.9999999999998
302,4822.27796338224
303,0.0
304,19.9999999999995
2,1, 1,21, 0,10,20.00,30.00,WinterDesignDay
6,-17.3
152,689.214180181709
153,1056.36028937204
154,5293.89037279142
155,4953.78142537822
156,0.0
157,11.0068378755011
158,-4.33408803352791
159,1.
232,631.132556319918
233,0.0
234,19.9999999999999
267,2833.54193301619
268,0.0
269,19.9999999999995
302,4747.11555325427
303,0.0
304,20.0000000000002
2,1, 1,21, 0,10,30.00,40.00,WinterDesignDay
6,-17.3
152,719.621273898846
153,1093.52705906443
154,5549.50625918624
155,5214.31266620226
156,0.0
157,11.3383140777591
158,-4.0794130550089
159,1.
232,530.543491910066
233,0.0
234,20.
267,2751.21584075385
268,0.0
269,20.0000000000004
302,4670.41777860808
303,0.0
304,20.
2,1, 1,21, 0,10,40.00,50.00,WinterDesignDay
6,-17.3
152,747.617730572279
153,1126.97816033269
154,5785.46193298288
155,5453.93259034876
156,0.0
157,11.6461314143264
158,-3.84654947416823
159,1.
232,432.345292371442
233,0.0
234,20.
267,2664.22000831548
268,0.0
269,20.0000000000002
302,4592.3873381308
303,0.0
304,19.9999999999995
2,1, 1,21, 0,10,50.00,60.00,WinterDesignDay
6,-17.3
152,773.32058294446
153,1157.11598516744
154,6002.47000559316
155,5673.50063960736
156,0.0
157,11.9329296115541
158,-3.63289549213255
159,1.
232,336.274025954792
233,0.0
234,20.
267,2573.22929469193
268,0.0
269,20.0000000000002
302,4513.30777113408
303,0.0
304,20.0000000000002
2,1, 1,21, 0,11, 0.00,10.00,WinterDesignDay
6,-17.3
152,796.818243606777
153,1184.255483045
154,6201.08344886621
155,5873.68930847819
156,0.0
157,12.2007333439508
158,-3.43646671291549
159,1.
232,242.270757046336
233,0.0
234,20.
267,2478.96525670117
268,0.0
269,20.0000000000002
302,4433.50482913957
303,0.0
304,20.
2,1, 1,21, 0,11,10.00,20.00,WinterDesignDay
6,-17.3
152,818.177487315626
153,1208.63672701689
154,6381.73550666516
155,6054.74738604972
156,0.0
157,12.446095850129
158,-3.2632321625947
159,1.
232,150.477396562583
233,0.0
234,20.
267,2382.16010577827
268,0.0
269,20.0000000000002
302,4353.31811777455
303,0.0
304,19.9999999999995
2,1, 1,21, 0,11,20.00,30.00,WinterDesignDay
6,-17.3
152,837.448651429324
153,1230.43765310205
154,6544.76862797074
155,6217.71460768823
156,0.0
157,12.6802457854756
158,-3.09678384455378
159,1.
232,60.8631858439257
233,0.0
234,20.
267,2283.53278344906
268,0.0
269,20.
302,4273.08058633269
303,0.0
304,20.0000000000004
2,1, 1,21, 0,11,30.00,40.00,WinterDesignDay
6,-17.3
152,854.669546826946
153,1249.78668495402
154,6690.45522934046
155,6362.63389181576
156,0.0
157,12.8988689914518
158,-2.94434327063055
159,1.
232,0.0
233,0.0
234,20.035757518352
267,2183.77320775218
268,0.0
269,19.9999999999998
302,4193.10374628978
303,0.0
304,20.
2,1, 1,21, 0,11,40.00,50.00,WinterDesignDay
6,-17.3
152,869.868424004356
153,1266.7746306129
154,6819.01252396909
155,6489.45460996572
156,0.0
157,13.1102159597504
158,-2.80249524223069
159,1.
232,0.0
233,0.0
234,20.1800205890431
267,2083.53236896024
268,0.0
269,19.9999999999997
302,4113.66809094559
303,0.0
304,20.
2,1, 1,21, 0,11,50.00,60.00,WinterDesignDay
6,-17.3
152,883.06623755287
153,1281.4651798829
154,6930.61319058305
155,6597.72835205565
156,0.0
157,13.3310092438942
158,-2.66453494838703
159,1.
232,0.0
233,0.0
234,20.3930562573122
267,1983.41670895056
268,0.0
269,19.9999999999998
302,4035.02075321532
303,0.0
304,20.
2,1, 1,21, 0,12, 0.00,10.00,WinterDesignDay
6,-17.3
152,894.278382010586
153,1293.9034677819
154,7025.39324356543
155,6687.9761552801
156,0.0
157,13.5545469241277
158,-2.53308036330714
159,1.
232,0.0
233,0.0
234,20.615517035366
267,1883.98561259861
268,0.0
269,19.9999999999997
302,3957.38093716136
303,0.0
304,20.
2,1, 1,21, 0,12,10.00,20.00,WinterDesignDay
6,-17.3
152,903.516023011302
153,1304.1224247088
154,7103.45808604429
155,6760.96471366886
156,0.0
157,13.7680216289195
158,-2.41319537579875
159,1.
232,0.0
233,0.0
234,20.8265790155184
267,1785.75109959957
268,0.0
269,19.9999999999998
302,3880.94903344464
303,0.0
304,20.
2,1, 1,21, 0,12,20.00,30.00,WinterDesignDay
6,-17.3
152,910.787112935372
153,1312.14693183679
154,7164.88738318633
155,6817.23748343008
156,0.0
157,13.9657058726456
158,-2.30723377794118
159,1.
232,0.0
233,0.0
234,21.0330516951216
267,1689.17900584245
268,0.0
269,19.9999999999997
302,3805.91454097331
303,0.0
304,19.9999999999998
2,1, 1,21, 0,12,30.00,40.00,WinterDesignDay
6,-17.3
152,916.097155313575
153,1317.99607350201
154,7209.73909831358
155,6857.35962897828
156,0.0
157,14.1474658844831
158,-2.2155569480982
159,1.
232,0.0
233,0.0
234,21.2454140613384
267,1594.69111350816
268,0.0
269,20.0000000000001
302,3732.46069911176
303,0.0
304,20.0000000000002
2,1, 1,21, 0,12,40.00,50.00,WinterDesignDay
6,-17.3
152,919.449763947877
153,1321.68397465563
154,7238.05280646457
155,6880.71318771696
156,0.0
157,14.3160089750266
158,-2.13667824597547
159,1.
232,0.0
233,0.0
234,21.4668132942786
267,1502.66783937469
268,0.0
269,20.
302,3660.76611623179
303,0.0
304,20.
2,1, 1,21, 0,12,50.00,60.00,WinterDesignDay
6,-17.3
152,920.847048961948
153,1323.21979823125
154,7249.85225024516
155,6886.85983597384
156,0.0
157,14.4735022827639
158,-2.06944805550643
159,1.
232,0.0
233,0.0
234,21.6940405815019
267,1413.45121268746
268,0.0
269,19.9999999999998
302,3591.00449220972
303,0.0
304,20.
2,1, 1,21, 0,13, 0.00,10.00,WinterDesignDay
6,-17.3
152,920.28985128527
153,1322.6074442342
154,7245.14703318884
155,6874.38398599023
156,0.0
157,14.5985949943646
158,-2.0223227929514
159,1.
232,0.0
233,0.0
234,21.8006099606987
267,1422.84725277003
268,0.0
269,20.0000000000001
302,3650.81425782056
303,0.0
304,20.
2,1, 1,21, 0,13,10.00,20.00,WinterDesignDay
6,-17.3
152,917.777838324408
153,1319.84535103428
154,7223.93334684326
155,6847.4701742551
156,0.0
157,14.702978232649
158,-1.99061281497416
159,1.
232,0.0
233,0.0
234,21.9273839988673
267,1341.5788432258
268,0.0
269,19.9999999999999
302,3587.45132970602
303,0.0
304,19.9999999999998
2,1, 1,21, 0,13,20.00,30.00,WinterDesignDay
6,-17.3
152,913.309465956285
153,1314.92657992662
154,7186.19367923579
155,6803.3994248458
156,0.0
157,14.7963532028995
158,-1.97054974979943
159,1.
232,0.0
233,0.0
234,22.12422403884
267,1263.38860724485
268,0.0
269,19.9999999999999
302,3525.71201279482
303,0.0
304,19.9999999999996
2,1, 1,21, 0,13,30.00,40.00,WinterDesignDay
6,-17.3
152,906.8818048084
153,1307.83910973322
154,7131.89552624994
155,6742.59138842393
156,0.0
157,14.8882353076992
158,-1.95899475796205
159,1.
232,0.0
233,0.0
234,22.3566838161796
267,1188.79210720613
268,0.0
269,19.9999999999999
302,3466.14644372406
303,0.0
304,20.0000000000002
2,1, 1,21, 0,13,40.00,50.00,WinterDesignDay
6,-17.3
152,898.490221443609
153,1298.56602800269
154,7060.9891922706
155,6664.9625387384
156,0.0
157,14.9721755902003
158,-1.95833663113825
159,1.
232,0.0
233,0.0
234,22.5903411824168
267,1117.91958896493
268,0.0
269,19.9999999999999
302,3408.74943774945
303,0.0
304,20.
2,1, 1,21, 0,13,50.00,60.00,WinterDesignDay
6,-17.3
152,888.1278968939
153,1287.08512586249
154,6973.40479214715
155,6570.3739832424
156,0.0
157,15.0418570559041
158,-1.9708609072066
159,1.
232,0.0
233,0.0
234,22.817955410487
267,1050.77024741124
268,0.0
269,20.
302,3353.33080775525
303,0.0
304,19.9999999999998
2,1, 1,21, 0,14, 0.00,10.00,WinterDesignDay
6,-17.3
152,875.785155235292
153,1273.3673213889
154,6869.04852908583
155,6460.01197344441
156,0.0
157,15.114889335515
158,-1.9894664434803
159,1.
232,0.0
233,0.0
234,23.0749404188404
267,891.837454012557
268,0.0
269,20.
302,3172.17095835757
303,0.0
304,20.
2,1, 1,21, 0,14,10.00,20.00,WinterDesignDay
6,-17.3
152,861.448562607353
153,1257.37337158543
154,6747.79820817689
155,6329.35777261054
156,0.0
157,15.1885812563544
158,-2.01525472128071
159,1.
232,0.0
233,0.0
234,23.4755080067842
267,830.483057327799
268,0.0
269,20.
302,3117.8219955256
303,0.0
304,19.9999999999999
2,1, 1,21, 0,14,20.00,30.00,WinterDesignDay
6,-17.3
152,845.099740960997
153,1239.04848500392
154,6609.49774995834
155,6181.32792314319
156,0.0
157,15.2415245530372
158,-2.05680624400804
159,1.
232,0.0
233,0.0
234,23.7638368855952
267,773.072476582629
268,0.0
269,19.9999999999999
302,3065.3265099441
303,0.0
304,20.
2,1, 1,21, 0,14,30.00,40.00,WinterDesignDay
6,-17.3
152,826.713819044069
153,1218.31469257477
154,6453.95020054101
155,6016.60128338066
156,0.0
157,15.2511414777114
158,-2.1232487997753
159,1.
232,0.0
233,0.0
234,23.9744555784102
267,719.150499266222
268,0.0
269,19.9999999999999
302,3013.93645907661
303,0.0
304,19.9999999999998
2,1, 1,21, 0,14,40.00,50.00,WinterDesignDay
6,-17.3
152,806.257413072473
153,1195.06112900718
154,6280.90840964769
155,5833.86242745402
156,0.0
157,15.2395061280357
158,-2.20604493371985
159,1.
232,0.0
233,0.0
234,24.1774698488676
267,668.551151619469
268,0.0
269,19.9999999999999
302,2963.37409123134
303,0.0
304,19.9999999999996
2,1, 1,21, 0,14,50.00,60.00,WinterDesignDay
6,-17.3
152,783.685987317927
153,1169.13265959999
154,6090.0621820756
155,5632.67818621244
156,0.0
157,15.2070263895932
158,-2.3055443377674
159,1.
232,0.0
233,0.0
234,24.3950654581214
267,621.162365945498
268,0.0
269,19.9999999999999
302,2913.48149880066
303,0.0
304,19.9999999999996
2,1, 1,21, 0,15, 0.00,10.00,WinterDesignDay
6,-17.3
152,758.94038473616
153,1140.31748456041
154,5881.0203109231
155,5412.33931931792
156,0.0
157,15.1573959751858
158,-2.4209940836206
159,1.
232,0.0
233,0.0
234,24.6152577288173
267,576.898918368536
268,0.0
269,20.
302,2864.17933447198
303,0.0
304,19.9999999999997
2,1, 1,21, 0,15,10.00,20.00,WinterDesignDay
6,-17.3
152,731.942231221487
153,1108.33438776804
154,5653.28546375118
155,5172.34442798333
156,0.0
157,15.0866251894161
158,-2.55501278643783
159,1.
232,0.0
233,0.0
234,24.8248231397285
267,535.692807706986
268,0.0
269,20.
302,2815.45047651892
303,0.0
304,19.9999999999998
2,1, 1,21, 0,15,20.00,30.00,WinterDesignDay
6,-17.3
152,702.587791455505
153,1072.82009470463
154,5406.21937733883
155,4912.05464322962
156,0.0
157,14.989361724541
158,-2.71109834309669
159,1.
232,0.0
233,0.0
234,25.0199380487373
267,497.487958885101
268,0.0
269,20.
302,2767.32975877939
303,0.0
304,19.9999999999997
2,1, 1,21, 0,15,30.00,40.00,WinterDesignDay
6,-17.3
152,670.739671270429
153,1033.31669855753
154,5138.99514513135
155,4630.25508407938
156,0.0
157,14.8581565355404
158,-2.90069025169225
159,1.
232,0.0
233,0.0
234,25.2006997815611
267,462.236512093434
268,0.0
269,20.
302,2719.89606481386
303,0.0
304,19.9999999999998
2,1, 1,21, 0,15,40.00,50.00,WinterDesignDay
6,-17.3
152,636.215495806733
153,989.25825055027
154,4850.53243772187
155,4326.20498523001
156,0.0
157,14.6956615779964
158,-3.11235732280431
159,1.
232,0.0
233,0.0
234,25.3658907429885
267,429.895910891816
268,0.0
269,20.
302,2673.26591337634
303,0.0
304,19.9999999999997
2,1, 1,21, 0,15,50.00,60.00,WinterDesignDay
6,-17.3
152,598.772314975617
153,939.954356887158
154,4539.41016423149
155,3997.55978633556
156,0.0
157,14.494980247014
158,-3.35742163779815
159,1.
232,0.0
233,0.0
234,25.5101969592716
267,400.426455988327
268,0.0
269,20.
302,2627.58827437423
303,0.0
304,19.9999999999997
2,1, 1,21, 0,16, 0.00,10.00,WinterDesignDay
6,-17.3
152,565.784839710546
153,896.598899725994