Program Version,EnergyPlus, Linux, VERSION 7.1.0.012, YMD=2012.07.16 09:44
1,5,Environment Title[],Latitude[degrees],Longitude[degrees],Time Zone[],Elevation[m]
2,6,Day of Simulation[],Month[],Day of Month[],DST Indicator[1=yes 0=no],Hour[],StartMinute[],EndMinute[],DayType
3,3,Cumulative Day of Simulation[],Month[],Day of Month[],DST Indicator[1=yes 0=no],DayType  ! When Daily Report Variables Requested
4,2,Cumulative Days of Simulation[],Month[]  ! When Monthly Report Variables Requested
5,1,Cumulative Days of Simulation[] ! When Run Period Report Variables Requested
6,1,Environment,Outdoor Dry Bulb [C] !TimeStep
99,1,SPACE1-1,Zone/Sys Sensible Heating Energy [J] !TimeStep
150,1,SPACE1-1,Zone/Sys Sensible Cooling Energy [J] !TimeStep
171,1,SPACE1-1,Zone/Sys Sensible Heating Rate [W] !TimeStep
172,1,SPACE1-1,Zone/Sys Sensible Cooling Rate [W] !TimeStep
173,1,SPACE1-1,Zone/Sys Air Temperature [C] !TimeStep
174,1,SPACE1-1,Zone Air Humidity Ratio [] !TimeStep
175,1,SPACE1-1,Zone Air Relative Humidity [%] !TimeStep
269,1,SUPPLY FAN 1,Fan Electric Power[W] !TimeStep
270,1,SUPPLY FAN 1,Fan Delta Temp[deltaC] !TimeStep
302,1,ZONE 1 FAN,Fan Electric Power[W] !TimeStep
303,1,ZONE 1 FAN,Fan Delta Temp[deltaC] !TimeStep
305,1,SYS 1 HEAT PUMP COOLING MODE,WatertoAirHP Cooling Electric Consumption [J] !TimeStep
316,1,SYS 1 HEAT PUMP COOLING MODE,WatertoAirHP Load Side Total Cooling Energy [J] !TimeStep
337,1,SYS 1 HEAT PUMP COOLING MODE,WatertoAirHP Load Side Sensible Cooling Energy [J] !TimeStep
338,1,SYS 1 HEAT PUMP COOLING MODE,WatertoAirHP Load Side Latent Cooling Energy [J] !TimeStep
339,1,SYS 1 HEAT PUMP COOLING MODE,WatertoAirHP Source Side Cooling Energy [J] !TimeStep
370,1,SYS 1 HEAT PUMP HEATING MODE,WatertoAirHP Heating Electric Consumption [J] !TimeStep
381,1,SYS 1 HEAT PUMP HEATING MODE,WatertoAirHP Load Side Total Heating Energy [J] !TimeStep
392,1,SYS 1 HEAT PUMP HEATING MODE,WatertoAirHP Source Side Heating Energy [J] !TimeStep
423,1,SYS 1 HEAT PUMP COOLING MODE,WatertoAirHP Power [W] !TimeStep
424,1,SYS 1 HEAT PUMP COOLING MODE,WatertoAirHP Load Side Total Heat Transfer Rate [W] !TimeStep
425,1,SYS 1 HEAT PUMP COOLING MODE,WatertoAirHP Load Side Sensible Heat Transfer Rate [W] !TimeStep
426,1,SYS 1 HEAT PUMP COOLING MODE,WatertoAirHP Source Side Heat Transfer Rate [W] !TimeStep
427,1,SYS 1 HEAT PUMP COOLING MODE,WatertoAirHP Part Load Ratio !TimeStep
428,1,SYS 1 HEAT PUMP COOLING MODE,WatertoAirHP Run Time Fraction !TimeStep
429,1,SYS 1 HEAT PUMP COOLING MODE,WatertoAirHP Air Mass Flow Rate [kg/s] !TimeStep
430,1,SYS 1 HEAT PUMP COOLING MODE,WatertoAirHP Load Side Inlet Dry Bulb Temperature [C] !TimeStep
431,1,SYS 1 HEAT PUMP COOLING MODE,WatertoAirHP Load Side Inlet Humidity Ratio [kgWater/kgDryAir] !TimeStep
432,1,SYS 1 HEAT PUMP COOLING MODE,WatertoAirHP Load Side Outlet Dry Bulb Temperature [C] !TimeStep
433,1,SYS 1 HEAT PUMP COOLING MODE,WatertoAirHP Load Side Outlet Humidity Ratio [kgWater/kgDryAir] !TimeStep
434,1,SYS 1 HEAT PUMP COOLING MODE,WatertoAirHP Water Mass Flow Rate [kg/s] !TimeStep
435,1,SYS 1 HEAT PUMP COOLING MODE,WatertoAirHP Source Side Inlet Temperature [C] !TimeStep
436,1,SYS 1 HEAT PUMP COOLING MODE,WatertoAirHP Source Side Outlet Temperature [C] !TimeStep
437,1,SYS 1 HEAT PUMP HEATING MODE,WatertoAirHP Power [W] !TimeStep
438,1,SYS 1 HEAT PUMP HEATING MODE,WatertoAirHP Load Side Total Heat Transfer Rate [W] !TimeStep
439,1,SYS 1 HEAT PUMP HEATING MODE,WatertoAirHP Load Side Sensible Heat Transfer Rate [W] !TimeStep
440,1,SYS 1 HEAT PUMP HEATING MODE,WatertoAirHP Source Side Heat Transfer Rate [W] !TimeStep
441,1,SYS 1 HEAT PUMP HEATING MODE,WatertoAirHP Part Load Ratio !TimeStep
442,1,SYS 1 HEAT PUMP HEATING MODE,WatertoAirHP Run Time Fraction !TimeStep
443,1,SYS 1 HEAT PUMP HEATING MODE,WatertoAirHP Air Mass Flow Rate [kg/s] !TimeStep
444,1,SYS 1 HEAT PUMP HEATING MODE,WatertoAirHP Load Side Inlet Dry Bulb Temperature [C] !TimeStep
445,1,SYS 1 HEAT PUMP HEATING MODE,WatertoAirHP Load Side Inlet Humidity Ratio [kgWater/kgDryAir] !TimeStep
446,1,SYS 1 HEAT PUMP HEATING MODE,WatertoAirHP Load Side Outlet Dry Bulb Temperature [C] !TimeStep
447,1,SYS 1 HEAT PUMP HEATING MODE,WatertoAirHP Load Side Outlet Humidity Ratio [kgWater/kgDryAir] !TimeStep
448,1,SYS 1 HEAT PUMP HEATING MODE,WatertoAirHP Water Mass Flow Rate [kg/s] !TimeStep
449,1,SYS 1 HEAT PUMP HEATING MODE,WatertoAirHP Source Side Inlet Temperature [C] !TimeStep
450,1,SYS 1 HEAT PUMP HEATING MODE,WatertoAirHP Source Side Outlet Temperature [C] !TimeStep
451,1,HEAT PUMP DX SUPP HEATING COIL 1,Heating Coil Energy[J] !TimeStep
452,1,HEAT PUMP DX SUPP HEATING COIL 1,Heating Coil Rate[W] !TimeStep
484,1,HEAT PUMP DX SUPP HEATING COIL 1,Heating Coil Gas Consumption Rate [W] !TimeStep
487,1,ZONE1WTAHP,Zone Water Source Heat Pump Total Zone Heating Rate[W] !TimeStep
488,1,ZONE1WTAHP,Zone Water Source Heat Pump Total Zone Heating Energy[J] !TimeStep
489,1,ZONE1WTAHP,Zone Water Source Heat Pump Total Zone Cooling Rate[W] !TimeStep
490,1,ZONE1WTAHP,Zone Water Source Heat Pump Total Zone Cooling Energy[J] !TimeStep
491,1,ZONE1WTAHP,Zone Water Source Heat Pump Sensible Zone Heating Rate[W] !TimeStep
492,1,ZONE1WTAHP,Zone Water Source Heat Pump Sensible Zone Heating Energy[J] !TimeStep
493,1,ZONE1WTAHP,Zone Water Source Heat Pump Sensible Zone Cooling Rate[W] !TimeStep
494,1,ZONE1WTAHP,Zone Water Source Heat Pump Sensible Zone Cooling Energy[J] !TimeStep
495,1,ZONE1WTAHP,Zone Water Source Heat Pump Latent Zone Heating Rate[W] !TimeStep
496,1,ZONE1WTAHP,Zone Water Source Heat Pump Latent Zone Heating Energy[J] !TimeStep
497,1,ZONE1WTAHP,Zone Water Source Heat Pump Latent Zone Cooling Rate[W] !TimeStep
498,1,ZONE1WTAHP,Zone Water Source Heat Pump Latent Zone Cooling Energy[J] !TimeStep
499,1,ZONE1WTAHP,Zone Water Source Heat Pump Electric Power[W] !TimeStep
500,1,ZONE1WTAHP,Zone Water Source Heat Pump Electric Consumption[J] !TimeStep
501,1,ZONE1WTAHP,Zone Water Source Heat Pump Fan Part-Load Ratio !TimeStep
502,1,ZONE1WTAHP,Zone Water Source Heat Pump Compressor Part-Load Ratio !TimeStep
503,1,VERTICAL GROUND HEAT EXCHANGER,Ground Heat Exchanger Average Borehole Temperature[C] !TimeStep
504,1,VERTICAL GROUND HEAT EXCHANGER,Ground Heat Exchanger Heat Transfer[W] !TimeStep
505,1,VERTICAL GROUND HEAT EXCHANGER,Ground Heat Exchanger Inlet Temp[C] !TimeStep
506,1,VERTICAL GROUND HEAT EXCHANGER,Ground Heat Exchanger Outlet Temp[C] !TimeStep
507,1,VERTICAL GROUND HEAT EXCHANGER,Ground Heat Exchanger Mass Flow Rate[kg/s] !TimeStep
508,1,VERTICAL GROUND HEAT EXCHANGER,Ground Heat Exchanger Average Fluid Temp[C] !TimeStep
530,1,ZONE 1 INLET NODE,System Node Temp[C] !TimeStep
531,1,ZONE 1 INLET NODE,System Node MassFlowRate[kg/s] !TimeStep
532,1,SYS 1 OUTSIDE AIR INLET NODE,System Node MassFlowRate[kg/s] !TimeStep
533,1,OUTSIDE AIR INLET NODE,System Node Temp[C] !TimeStep
534,1,OUTSIDE AIR INLET NODE,System Node MassFlowRate[kg/s] !TimeStep
535,1,OUTDOOR AIR MIXER INLET NODE,System Node Temp[C] !TimeStep
536,1,OUTDOOR AIR MIXER INLET NODE,System Node MassFlowRate[kg/s] !TimeStep
537,1,MIXED AIR NODE,System Node Temp[C] !TimeStep
538,1,MIXED AIR NODE,System Node MassFlowRate[kg/s] !TimeStep
539,1,ZONE 1 RETURN NODE,System Node Temp[C] !TimeStep
540,1,ZONE 1 RETURN NODE,System Node MassFlowRate[kg/s] !TimeStep
541,1,ZONE 1 OUTLET NODE,System Node Temp[C] !TimeStep
542,1,ZONE 1 OUTLET NODE,System Node MassFlowRate[kg/s] !TimeStep
543,1,RELIEF AIR OUTLET NODE,System Node Temp[C] !TimeStep
544,1,RELIEF AIR OUTLET NODE,System Node MassFlowRate[kg/s] !TimeStep
End of Data Dictionary
1,DENVER CENTENNIAL ANN HTG 99.6% CONDNS DB,  37.62,-122.40,  -8.00,   2.00
2,1,12,21, 0, 1, 0.00,15.00,WinterDesignDay
6,-18.8
99,1949028.51533526
150,0.0
171,2165.5872392614
172,0.0
173,15.
174,7.118208156800238E-004
175,6.79004608992533
269,53.5714285714286
270,0.707538232934699
302,29.5900798638259
303,0.353769116467348
305,0.0
316,0.0
337,0.0
338,0.0
339,0.0
370,622856.122069358
381,2019105.36318529
392,1597925.90979464
423,0.0
424,0.0
425,0.0
426,0.0
427,0.0
428,0.0
429,0.0
430,15.3537691164673
431,7.118208156800214E-004
432,15.3537691164673
433,7.118208156800214E-004
434,0.0
435,10.7650406199314
436,10.7650406199314
437,692.062357854842
438,2243.45040353921
439,2243.45040353921
440,1775.47323310515
441,3.326620578586429E-002
442,4.919532461742977E-002
443,8.437356949569329E-002
444,15.3537691164673
445,7.118208156800214E-004
446,41.7803881605767
447,7.118208156800910E-004
448,3.06031317330346
449,10.7650406199314
450,10.6265801694004
451,0.0
452,0.0
484,0.0
487,2239.9745697668
488,2015977.11279012
489,0.0
490,0.0
491,2239.97456976678
492,2015977.1127901
493,0.0
494,0.0
495,1.546140993013978E-011
496,1.391526893712580E-008
497,0.0
498,0.0
499,721.652437718668
500,649487.193946801
501,3.326620578586429E-002
502,3.326620578586429E-002
503,12.1398525693237
504,2593.27600330453
505,10.6476254405065
506,10.6476254405065
507,0.329406
508,11.586337804209
530,41.7803881605767
531,8.312999880755835E-002
532,0.0
533,-18.8
534,3.762572468337908E-003
535,15.
536,7.525144936675814E-002
537,13.31
538,7.525144936675815E-002
539,15.
540,7.525144936675814E-002
541,15.
542,8.312999880755835E-002
543,15.
544,3.762572468337908E-003
2,1,12,21, 0, 1,15.00,30.00,WinterDesignDay
6,-18.8
99,1950077.7659076
150,0.0
171,2166.75307323067
172,0.0
173,15.
174,7.118208156800153E-004
175,6.79004608992525
269,53.5714285714286
270,0.707538232934699
302,29.570653884512
303,0.353769116467349
305,0.0
316,0.0
337,0.0
338,0.0
339,0.0
370,622815.080679521
381,2020188.05478472
392,1599094.27730282
423,0.0
424,0.0
425,0.0
426,0.0
427,0.0
428,0.0
429,0.0
430,15.3537691164673
431,7.118208156800238E-004
432,15.3537691164673
433,7.118208156800238E-004
434,0.0
435,10.8415950230619
436,10.8415950230619
437,692.016756310579
438,2244.65339420525
439,2244.65339420525
440,1776.77141922535
441,3.324436641846738E-002
442,4.916979034188386E-002
443,8.431817798532187E-002
444,15.3537691164673
445,7.118208156800238E-004
446,41.8119285966901
447,7.118208156797185E-004
448,3.06031317330346
449,10.8415950230619
450,10.7030302954049
451,0.0
452,0.0
484,0.0
487,2241.14040373596
488,2017026.36336236
489,0.0
490,0.0
491,2241.14040373602
492,2017026.36336242
493,0.0
494,0.0
495,0.0
496,0.0
497,6.457412382587790E-011
498,5.811671144329011E-008
499,721.587410195091
500,649428.669175582
501,3.324436641846738E-002
502,3.324436641846738E-002
503,13.375
504,5075.81880524946
505,10.6660450767461
506,14.3434357916024
507,0.329406
508,12.5047404341743
530,41.8119285966901
531,8.307542370520525E-002
532,0.0
533,-18.8
534,3.762572468337908E-003
535,15.
536,7.525144936675816E-002
537,13.31
538,7.525144936675816E-002
539,15.
540,7.525144936675816E-002
541,15.
542,8.307542370520525E-002
543,15.
544,3.762572468337908E-003
2,1,12,21, 0, 1,30.00,45.00,WinterDesignDay
6,-18.8
99,1951012.28171969
150,0.0
171,2167.79142413299
172,0.0
173,15.
174,7.118208156800111E-004
175,6.79004608992521
269,53.5714285714286
270,0.707538232934699
302,29.5003435912402
303,0.353769116467349
305,0.0
316,0.0
337,0.0
338,0.0
339,0.0
370,622326.411063349
381,2021200.7762259
392,1600647.36342274
423,0.0
424,0.0
425,0.0
426,0.0
427,0.0
428,0.0
429,0.0
430,15.3537691164673
431,7.118208156800153E-004
432,15.3537691164673
433,7.118208156800153E-004
434,0.0
435,11.0269219307943
436,11.0269219307943
437,691.473790070388
438,2245.778640251
439,2245.778640251
440,1778.49707046971
441,3.316532112032663E-002
442,4.907736957121483E-002
443,8.411769422715248E-002
444,15.3537691164673
445,7.118208156800153E-004
446,41.8882833359884
447,7.118208156800840E-004
448,3.06031317330346
449,11.0269219307943
450,10.8882152629688
451,0.0
452,0.0
484,0.0
487,2242.17875463838
488,2017960.87917454
489,0.0
490,0.0
491,2242.17875463836
492,2017960.87917453
493,0.0
494,0.0
495,1.455191522836685E-011
496,1.309672370553017E-008
497,0.0
498,0.0
499,720.974133661628
500,648876.720295466
501,3.316532112032663E-002
502,3.316532112032663E-002
503,13.7946890008825
504,5297.5003216374
505,10.7714632598354
506,14.6095763582586
507,0.329406
508,12.690519809047
530,41.8882833359884
531,8.287789485017195E-002
532,0.0
533,-18.8
534,3.762572468337908E-003
535,15.
536,7.525144936675814E-002
537,13.31
538,7.525144936675814E-002
539,15.
540,7.525144936675814E-002
541,15.
542,8.287789485017195E-002
543,15.
544,3.762572468337908E-003
2,1,12,21, 0, 1,45.00,60.00,WinterDesignDay
6,-18.8
99,1951851.31454187
150,0.0
171,2168.7236828243
172,0.0
173,15.
174,7.118208156800114E-004
175,6.79004608992522
269,53.5714285714286
270,0.707538232934699
302,29.448521923039
303,0.353769116467349
305,0.0
316,0.0
337,0.0
338,0.0
339,0.0
370,621984.539898482
381,2022099.69763109
392,1601932.47215039
423,0.0
424,0.0
425,0.0
426,0.0
427,0.0
428,0.0
429,0.0
430,15.3537691164674
431,7.118208156800111E-004
432,15.3537691164674
433,7.118208156800111E-004
434,0.0
435,11.1689501601845
436,11.1689501601845
437,691.093933220536
438,2246.77744181232
439,2246.77744181232
440,1779.92496905599
441,3.310706138306064E-002
442,4.900924939629730E-002
443,8.396992919429437E-002
444,15.3537691164674
445,7.118208156800111E-004
446,41.9467990073548
447,7.118208156800781E-004
448,3.06031317330346
449,11.1689501601845
450,11.0301264820457
451,0.0
452,0.0
484,0.0
487,2243.11101332967
488,2018799.91199671
489,0.0
490,0.0
491,2243.11101332966
492,2018799.91199669
493,0.0
494,0.0
495,1.455191522836685E-011
496,1.309672370553017E-008
497,0.0
498,0.0
499,720.542455143575
500,648488.209629218
501,3.310706138306064E-002
502,3.310706138306064E-002
503,13.6565463091777
504,4687.1632656699
505,10.9148806967867
506,14.3109355469439
507,0.329406
508,12.6129081218653
530,41.9467990073548
531,8.273230770625101E-002
532,0.0
533,-18.8
534,3.762572468337908E-003
535,15.
536,7.525144936675815E-002
537,13.31
538,7.525144936675815E-002
539,15.
540,7.525144936675815E-002
541,15.
542,8.273230770625101E-002
543,15.
544,3.762572468337908E-003
2,1,12,21, 0, 2, 0.00,15.00,WinterDesignDay
6,-18.8
99,1952611.09242198
150,0.0
171,2169.56788046887
172,0.0
173,15.
174,7.118208156800027E-004
175,6.79004608992513
269,53.5714285714286
270,0.707538232934699
302,29.4108559909233
303,0.353769116467349
305,0.0
316,0.0
337,0.0
338,0.0
339,0.0
370,621754.138930639
381,2022905.24774476
392,1603006.65887997
423,0.0
424,0.0
425,0.0
426,0.0
427,0.0
428,0.0
429,0.0
430,15.3537691164674
431,7.118208156800114E-004
432,15.3537691164674
433,7.118208156800114E-004
434,0.0
435,11.2773595750505
436,11.2773595750505
437,690.837932145155
438,2247.67249749418
439,2247.67249749418
440,1781.11850986663
441,3.306471602087695E-002
442,4.895973595464025E-002
443,8.386252802621336E-002
444,15.3537691164674
445,7.118208156800114E-004
446,41.991463717467
447,7.118208156797018E-004
448,3.06031317330346
449,11.2773595750505
450,11.1384384941067
451,0.0
452,0.0
484,0.0
487,2243.95521097415
488,2019559.68987674
489,0.0
490,0.0
491,2243.95521097422
492,2019559.6898768
493,0.0
494,0.0
495,0.0
496,0.0
497,6.502887117676437E-011
498,5.852598405908793E-008
499,720.248788136078
500,648223.90932247
501,3.306471602087695E-002
502,3.306471602087695E-002
503,13.4963862687439
504,4203.15122339471
505,11.0430121334283
506,14.0884908439246
507,0.329406
508,12.5657514886764
530,41.991463717467
531,8.262648950953524E-002
532,0.0
533,-18.8
534,3.762572468337908E-003
535,15.
536,7.525144936675815E-002
537,13.31
538,7.525144936675815E-002
539,15.
540,7.525144936675815E-002
541,15.
542,8.262648950953524E-002
543,15.
544,3.762572468337908E-003
2,1,12,21, 0, 2,15.00,30.00,WinterDesignDay
6,-18.8
99,1953305.15259164
150,0.0
171,2170.33905843516
172,0.0
173,15.
174,7.118208156799987E-004
175,6.7900460899251
269,53.5714285714286
270,0.707538232934699
302,29.3795033432456
303,0.353769116467349
305,0.0
316,0.0
337,0.0
338,0.0
339,0.0
370,621569.85156022
381,2023638.3300996
392,1603958.39428617
423,0.0
424,0.0
425,0.0
426,0.0
427,0.0
428,0.0
429,0.0
430,15.3537691164674
431,7.118208156800027E-004
432,15.3537691164674
433,7.118208156800027E-004
434,0.0
435,11.3698115878817
436,11.3698115878817
437,690.633168400244
438,2248.487033444
439,2248.487033444
440,1782.1759936513
441,3.302946827452487E-002
442,4.891852085498838E-002
443,8.377312864608723E-002
444,15.3537691164674
445,7.118208156800027E-004
446,42.0295539733485
447,7.118208156800714E-004
448,3.06031317330346
449,11.3698115878817
450,11.2308043457732
451,0.0
452,0.0
484,0.0
487,2244.72638894053
488,2020253.75004647
489,0.0
490,0.0
491,2244.72638894051
492,2020253.75004646
493,0.0
494,0.0
495,1.409716787748039E-011
496,1.268745108973235E-008
497,0.0
498,0.0
499,720.01267174349
500,648011.404569141
501,3.302946827452487E-002
502,3.302946827452487E-002
503,13.3977075549436
504,3865.22146396233
505,11.1504006175441
506,13.9511115902577
507,0.329406
508,12.5507561039009
530,42.0295539733485
531,8.253840777484391E-002
532,0.0
533,-18.8
534,3.762572468337908E-003
535,15.
536,7.525144936675814E-002
537,13.31
538,7.525144936675815E-002
539,15.
540,7.525144936675814E-002
541,15.
542,8.253840777484391E-002
543,15.
544,3.762572468337908E-003
2,1,12,21, 0, 2,30.00,45.00,WinterDesignDay
6,-18.8
99,1953944.70299046
150,0.0
171,2171.0496699894
172,0.0
173,15.
174,7.118208156799995E-004
175,6.7900460899251
269,53.5714285714286
270,0.707538232934699
302,29.3524397161405
303,0.353769116467349
305,0.0
316,0.0
337,0.0
338,0.0
339,0.0
370,621415.707996062
381,2024312.16938944
392,1604817.72285271
423,0.0
424,0.0
425,0.0
426,0.0
427,0.0
428,0.0
429,0.0
430,15.3537691164673
431,7.118208156799987E-004
432,15.3537691164673
433,7.118208156799987E-004
434,0.0
435,11.4510894204903
436,11.4510894204903
437,690.461897773402
438,2249.23574376604
439,2249.23574376604
440,1783.13080316968
441,3.299904239555692E-002
442,4.888294341611021E-002
443,8.369595903948723E-002
444,15.3537691164673
445,7.118208156799987E-004
446,42.0630404637647
447,7.118208156800697E-004
448,3.06031317330346
449,11.4510894204903
450,11.3120044665011
451,0.0
452,0.0
484,0.0
487,2245.43700049477
488,2020893.30044529
489,0.0
490,0.0
491,2245.43700049475
492,2020893.30044528
493,0.0
494,0.0
495,1.500666257925332E-011
496,1.350599632132798E-008
497,0.0
498,0.0
499,719.814337489543
500,647832.903740588
501,3.299904239555692E-002
502,3.299904239555692E-002
503,13.3330471769945
504,3603.15029738672
505,11.2424563502138
506,13.8533413286932
507,0.329406
508,12.5478988394535
530,42.0630404637647
531,8.246237556069223E-002
532,0.0
533,-18.8
534,3.762572468337908E-003
535,15.
536,7.525144936675816E-002
537,13.31
538,7.525144936675816E-002
539,15.
540,7.525144936675816E-002
541,15.
542,8.246237556069223E-002
543,15.
544,3.762572468337908E-003
2,1,12,21, 0, 2,45.00,60.00,WinterDesignDay
6,-18.8
99,1954538.97223421
150,0.0
171,2171.70996914912
172,0.0
173,15.
174,7.118208156800021E-004
175,6.79004608992513
269,53.5714285714286
270,0.707538232934699
302,29.32900008726
303,0.353769116467349
305,0.0
316,0.0
337,0.0
338,0.0
339,0.0
370,621287.102839205
381,2024936.73975759
392,1605599.69837041
423,0.0
424,0.0
425,0.0
426,0.0
427,0.0
428,0.0
429,0.0
430,15.3537691164674
431,7.118208156799995E-004
432,15.3537691164674
433,7.118208156799995E-004
434,0.0
435,11.522917700272
436,11.522917700272
437,690.319003154672
438,2249.92971084177
439,2249.92971084177
440,1783.99966485601
441,3.297269074252073E-002
442,4.885212962934772E-002
443,8.362912295234561E-002
444,15.3537691164674
445,7.118208156799995E-004
446,42.0926337356977
447,7.118208156800698E-004
448,3.06031317330346
449,11.522917700272
450,11.3837621115809
451,0.0
452,0.0
484,0.0
487,2246.09729965426
488,2021487.56968883
489,0.0
490,0.0
491,2246.09729965425
492,2021487.56968882
493,0.0
494,0.0
495,1.500666257925332E-011
496,1.350599632132798E-008
497,0.0
498,0.0
499,719.648003241932
500,647683.202917739
501,3.297269074252073E-002
502,3.297269074252073E-002
503,13.2854055764889
504,3386.68605958306
505,11.3228507922259
506,13.7769397555727
507,0.329406
508,12.5498952738993
530,42.0926337356977
531,8.239652456164603E-002
532,0.0
533,-18.8
534,3.762572468337908E-003
535,15.
536,7.525144936675815E-002
537,13.31
538,7.525144936675816E-002
539,15.
540,7.525144936675815E-002
541,15.
542,8.239652456164603E-002
543,15.
544,3.762572468337908E-003
2,1,12,21, 0, 3, 0.00,15.00,WinterDesignDay
6,-18.8
99,1955095.5287457
150,0.0
171,2172.328365273
172,0.0
173,15.
174,7.118208156800051E-004
175,6.79004608992516
269,53.5714285714286
270,0.707538232934699
302,29.308625289361
303,0.353769116467348
305,0.0
316,0.0
337,0.0
338,0.0
339,0.0
370,621180.147451396
381,2025520.23362469
392,1606316.79973258
423,0.0
424,0.0
425,0.0
426,0.0
427,0.0
428,0.0
429,0.0
430,15.3537691164674
431,7.118208156800021E-004
432,15.3537691164674
433,7.118208156800021E-004
434,0.0
435,11.5867492566541
436,11.5867492566541
437,690.200163834885
438,2250.57803736076
439,2250.57803736076
440,1784.79644414731
441,3.294978467998651E-002
442,4.882534457309261E-002
443,8.357102596732888E-002
444,15.3537691164674
445,7.118208156800021E-004
446,42.1189323552898
447,7.118208156800715E-004
448,3.06031317330346
449,11.5867492566541
450,11.4475289719592
451,0.0
452,0.0
484,0.0
487,2246.71569577803
488,2022044.12620023
489,0.0
490,0.0
491,2246.71569577801
492,2022044.12620021
493,0.0
494,0.0
495,1.500666257925332E-011
496,1.350599632132798E-008
497,0.0
498,0.0
499,719.508789124246
500,647557.910211821
501,3.294978467998651E-002
502,3.294978467998651E-002
503,13.2501881627544
504,3207.12744767358
505,11.3937649759332
506,13.7177878727828
507,0.329406
508,12.555776424358
530,42.1189323552898
531,8.233928386027441E-002
532,0.0
533,-18.8
534,3.762572468337908E-003
535,15.
536,7.525144936675814E-002
537,13.31
538,7.525144936675815E-002
539,15.
540,7.525144936675814E-002
541,15.
542,8.233928386027441E-002
543,15.
544,3.762572468337908E-003
2,1,12,21, 0, 3,15.00,30.00,WinterDesignDay
6,-18.8
99,1955620.56144458
150,0.0
171,2172.91173493842
172,0.0
173,15.
174,7.118208156800080E-004
175,6.79004608992518
269,53.5714285714286
270,0.707538232934699
302,29.2908263356382
303,0.353769116467348
305,0.0
316,0.0
337,0.0
338,0.0
339,0.0
370,621091.395967229
381,2026069.37916446
392,1606979.53814621
423,0.0
424,0.0
425,0.0
426,0.0
427,0.0
428,0.0
429,0.0
430,15.3537691164674
431,7.118208156800051E-004
432,15.3537691164674
433,7.118208156800051E-004
434,0.0
435,11.6438487399407
436,11.6438487399407
437,690.101551074699
438,2251.18819907162
439,2251.18819907162
440,1785.53282016245
441,3.292977447183432E-002
442,4.880194553488814E-002
443,8.352027378058960E-002
444,15.3537691164674
445,7.118208156800051E-004
446,42.1424573588298
447,7.118208156800762E-004
448,3.06031317330346
449,11.6438487399407
450,11.5045687372264
451,0.0
452,0.0
484,0.0
487,2247.2990654438
488,2022569.15889942
489,0.0
490,0.0
491,2247.29906544379
492,2022569.15889941
493,0.0
494,0.0
495,1.500666257925332E-011
496,1.350599632132798E-008
497,0.0
498,0.0
499,719.392377410337
500,647453.139669303
501,3.292977447183432E-002
502,3.292977447183432E-002
503,13.22402565974
504,3055.85213321578
505,11.4567854219734
506,13.6712276747649
507,0.329406
508,12.5640065483692
530,42.1424573588298
531,8.228927970318665E-002
532,0.0
533,-18.8
534,3.762572468337908E-003
535,15.
536,7.525144936675816E-002
537,13.31
538,7.525144936675815E-002
539,15.
540,7.525144936675816E-002
541,15.
542,8.228927970318665E-002
543,15.
544,3.762572468337908E-003
2,1,12,21, 0, 3,30.00,45.00,WinterDesignDay
6,-18.8
99,1956119.12086507
150,0.0
171,2173.46568985008
172,0.0
173,15.
174,7.118208156799994E-004
175,6.79004608992515
269,53.5714285714286
270,0.707538232934699
302,29.2752378515439
303,0.353769116467349
305,0.0
316,0.0
337,0.0
338,0.0
339,0.0
370,621018.325304373
381,2026589.6362195
392,1607596.16589268
423,0.0
424,0.0
425,0.0
426,0.0
427,0.0
428,0.0
429,0.0
430,15.3537691164674
431,7.118208156800080E-004
432,15.3537691164674
433,7.118208156800080E-004
434,0.0
435,11.6951762454697
436,11.6951762454697
437,690.020361449303
438,2251.76626246611
439,2251.76626246611
440,1786.21796210298
441,3.291224935118046E-002
442,4.878145226971441E-002
443,8.347582455800837E-002
444,15.3537691164674
445,7.118208156800080E-004
446,42.1636043058743
447,7.118208156796988E-004
448,3.06031317330346
449,11.6951762454697
450,11.5558407497369
451,0.0
452,0.0
484,0.0
487,2247.85302035561
488,2023067.71832005
489,0.0
490,0.0
491,2247.85302035568
492,2023067.71832011
493,0.0
494,0.0
495,0.0
496,0.0
497,6.457412382587790E-011
498,5.811671144329011E-008
499,719.295599300847
500,647366.039370763
501,3.291224935118046E-002
502,3.291224935118046E-002
503,13.2040929305993
504,2926.05851489865
505,11.5131418947893
506,13.6335626251694
507,0.329406
508,12.5733522599794
530,42.1636043058743
531,8.224548561171628E-002
532,0.0
533,-18.8
534,3.762572468337908E-003
535,15.
536,7.525144936675816E-002
537,13.31
538,7.525144936675815E-002
539,15.
540,7.525144936675816E-002
541,15.
542,8.224548561171628E-002
543,15.
544,3.762572468337908E-003
2,1,12,21, 0, 3,45.00,60.00,WinterDesignDay
6,-18.8
99,1956595.32294554
150,0.0
171,2173.99480327282
172,0.0
173,15.
174,7.118208156799952E-004
175,6.79004608992506
269,53.5714285714286
270,0.7075382329347
302,29.2615804643906
303,0.353769116467348
305,0.0
316,0.0
337,0.0
338,0.0
339,0.0
370,620959.037179062
381,2027085.43749637
392,1608173.23038896
423,0.0
424,0.0
425,0.0
426,0.0
427,0.0
428,0.0
429,0.0
430,15.3537691164673
431,7.118208156799994E-004
432,15.3537691164673
433,7.118208156799994E-004
434,0.0
435,11.741475022353
436,11.741475022353
437,689.954485754513
438,2252.31715277375
439,2252.31715277375
440,1786.85914487663
441,3.289689523744940E-002
442,4.876349756881018E-002
443,8.343688169237856E-002
444,15.3537691164673
445,7.118208156799994E-004
446,42.1826794152681
447,7.118208156800690E-004
448,3.06031317330346
449,11.741475022353
450,11.6020876618929
451,0.0
452,0.0
484,0.0
487,2248.38213377797
488,2023543.92040017
489,0.0
490,0.0
491,2248.38213377796
492,2023543.92040016
493,0.0
494,0.0
495,1.500666257925332E-011
496,1.350599632132798E-008
497,0.0
498,0.0
499,719.216066218903
500,647294.459597013
501,3.289689523744940E-002
502,3.289689523744940E-002
503,13.1885147646842
504,2813.14710594052
505,11.563781509927
506,13.6024085366688
507,0.329406
508,12.5830950232979
530,42.1826794152681
531,8.220711671974314E-002
532,0.0
533,-18.8
534,3.762572468337908E-003
535,15.
536,7.525144936675814E-002
537,13.31
538,7.525144936675815E-002
539,15.
540,7.525144936675814E-002
541,15.
542,8.220711671974314E-002
543,15.
544,3.762572468337908E-003
2,1,12,21, 0, 4, 0.00,15.00,WinterDesignDay
6,-18.8
99,1957052.51928832
150,0.0
171,2174.50279920925
172,0.0
173,15.
174,7.118208156799955E-004
175,6.79004608992507
269,53.5714285714286
270,0.707538232934699
302,29.249627107051
303,0.353769116467348
305,0.0
316,0.0
337,0.0
338,0.0
339,0.0
370,620911.990413617
381,2027560.39215374
392,1608716.05907301
423,0.0
424,0.0
425,0.0
426,0.0
427,0.0
428,0.0
429,0.0
430,15.3537691164674
431,7.118208156799952E-004
432,15.3537691164674
433,7.118208156799952E-004
434,0.0
435,11.7833506870493
436,11.7833506870493
437,689.902211570686
438,2252.84488017083
439,2252.84488017083
440,1787.4622878589
441,3.288345685381139E-002
442,4.874778296891719E-002
443,8.340279772130324E-002
444,15.3537691164674
445,7.118208156799952E-004
446,42.1999322011695
447,7.118208156800646E-004
448,3.06031317330346
449,11.7833506870493
450,11.6439146045726
451,0.0
452,0.0
484,0.0
487,2248.89012971461
488,2024001.11674315
489,0.0
490,0.0
491,2248.8901297146
492,2024001.11674314
493,0.0
494,0.0
495,1.500666257925332E-011
496,1.350599632132798E-008
497,0.0
498,0.0
499,719.151838677737
500,647236.654809963
501,3.288345685381139E-002
502,3.288345685381139E-002
503,13.176115100417
504,2713.98297558005
505,11.609448814595
506,13.576239464005
507,0.329406
508,12.5928441393
530,42.1999322011695
531,8.217353510773143E-002
532,0.0
533,-18.8
534,3.762572468337908E-003
535,15.
536,7.525144936675815E-002
537,13.31
538,7.525144936675815E-002
539,15.
540,7.525144936675815E-002
541,15.
542,8.217353510773143E-002
543,15.
544,3.762572468337908E-003
2,1,12,21, 0, 4,15.00,30.00,WinterDesignDay
6,-18.8
99,1957493.4382235
150,0.0
171,2174.99270913722
172,0.0
173,15.
174,7.118208156799979E-004
175,6.79004608992509
269,53.5714285714286
270,0.707538232934699
302,29.2391870363894
303,0.353769116467349
305,0.0
316,0.0
337,0.0
338,0.0
339,0.0
370,620875.88093309
381,2028017.44357157
392,1609229.04573691
423,0.0
424,0.0
425,0.0
426,0.0
427,0.0
428,0.0
429,0.0
430,15.3537691164674
431,7.118208156799955E-004
432,15.3537691164674
433,7.118208156799955E-004
434,0.0
435,11.8213104418913
436,11.8213104418913
437,689.862089925655
438,2253.35271507952
439,2253.35271507952
440,1788.03227304102
441,3.287171976014191E-002
442,4.873405774703832E-002
443,8.337302875712457E-002
444,15.3537691164674
445,7.118208156799955E-004
446,42.2155716310843
447,7.118208156800656E-004
448,3.06031317330346
449,11.8213104418913
450,11.6818283793024
451,0.0
452,0.0
484,0.0
487,2249.38003964226
488,2024442.03567803
489,0.0
490,0.0
491,2249.38003964224
492,2024442.03567802
493,0.0
494,0.0
495,1.500666257925332E-011
496,1.350599632132798E-008
497,0.0
498,0.0
499,719.101276962044
500,647191.14926584
501,3.287171976014191E-002
502,3.287171976014191E-002
503,13.1661151047724
504,2626.27822425317
505,11.6507483022168
506,13.554002895451
507,0.329406
508,12.6023755988339
530,42.2155716310843
531,8.214420490431029E-002
532,0.0
533,-18.8
534,3.762572468337908E-003
535,15.
536,7.525144936675815E-002
537,13.31
538,7.525144936675815E-002
539,15.
540,7.525144936675815E-002
541,15.
542,8.214420490431029E-002
543,15.
544,3.762572468337908E-003
2,1,12,21, 0, 4,30.00,45.00,WinterDesignDay
6,-18.8
99,1957920.30093796
150,0.0
171,2175.46700104218
172,0.0
173,15.
174,7.118208156800009E-004
175,6.79004608992512
269,53.5714285714286
270,0.7075382329347
302,29.2301386636437
303,0.353769116467348
305,0.0
316,0.0
337,0.0
338,0.0
339,0.0
370,620849.93367138
381,2028458.95723201
392,1609715.44165777
423,0.0
424,0.0
425,0.0